n -t 0 -s 0 -S DLABEL -l "UDP Source" -L ""
n -t 0 -s 1 -S DLABEL -l "TCP Source" -L ""
n -t 0 -s 2 -S DLABEL -l "TCP & UDP Dest" -L ""
V -t * -v 1.0a5 -a 0
A -t * -n 1 -p 0 -o 0x7fffffff -c 30 -a 1
A -t * -h 1 -m 1073741823 -s 0
c -t * -i 1 -n Blue
c -t * -i 2 -n Red
n -t * -a 0 -s 0 -S UP -v circle -c black -i black
n -t * -a 1 -s 1 -S UP -v circle -c black -i black
n -t * -a 2 -s 2 -S UP -v circle -c black -i black
l -t * -s 0 -d 1 -S UP -r 2250000 -D 0.01 -c black -o right
l -t * -s 1 -d 2 -S UP -r 2250000 -D 0.02 -c black -o down
+ -t 0.5 -s 0 -d 1 -p cbr -e 500 -c 1 -i 0 -a 1 -x {0.0 2.0 0 ------- null}
- -t 0.5 -s 0 -d 1 -p cbr -e 500 -c 1 -i 0 -a 1 -x {0.0 2.0 0 ------- null}
h -t 0.5 -s 0 -d 1 -p cbr -e 500 -c 1 -i 0 -a 1 -x {0.0 2.0 -1 ------- null}
+ -t 0.505 -s 0 -d 1 -p cbr -e 500 -c 1 -i 1 -a 1 -x {0.0 2.0 1 ------- null}
- -t 0.505 -s 0 -d 1 -p cbr -e 500 -c 1 -i 1 -a 1 -x {0.0 2.0 1 ------- null}
h -t 0.505 -s 0 -d 1 -p cbr -e 500 -c 1 -i 1 -a 1 -x {0.0 2.0 -1 ------- null}
+ -t 0.51 -s 0 -d 1 -p cbr -e 500 -c 1 -i 2 -a 1 -x {0.0 2.0 2 ------- null}
- -t 0.51 -s 0 -d 1 -p cbr -e 500 -c 1 -i 2 -a 1 -x {0.0 2.0 2 ------- null}
h -t 0.51 -s 0 -d 1 -p cbr -e 500 -c 1 -i 2 -a 1 -x {0.0 2.0 -1 ------- null}
r -t 0.511777777777778 -s 0 -d 1 -p cbr -e 500 -c 1 -i 0 -a 1 -x {0.0 2.0 0 ------- null}
+ -t 0.511777777777778 -s 1 -d 2 -p cbr -e 500 -c 1 -i 0 -a 1 -x {0.0 2.0 0 ------- null}
- -t 0.511777777777778 -s 1 -d 2 -p cbr -e 500 -c 1 -i 0 -a 1 -x {0.0 2.0 0 ------- null}
h -t 0.511777777777778 -s 1 -d 2 -p cbr -e 500 -c 1 -i 0 -a 1 -x {0.0 2.0 -1 ------- null}
+ -t 0.515 -s 0 -d 1 -p cbr -e 500 -c 1 -i 3 -a 1 -x {0.0 2.0 3 ------- null}
- -t 0.515 -s 0 -d 1 -p cbr -e 500 -c 1 -i 3 -a 1 -x {0.0 2.0 3 ------- null}
h -t 0.515 -s 0 -d 1 -p cbr -e 500 -c 1 -i 3 -a 1 -x {0.0 2.0 -1 ------- null}
r -t 0.516777777777778 -s 0 -d 1 -p cbr -e 500 -c 1 -i 1 -a 1 -x {0.0 2.0 1 ------- null}
+ -t 0.516777777777778 -s 1 -d 2 -p cbr -e 500 -c 1 -i 1 -a 1 -x {0.0 2.0 1 ------- null}
- -t 0.516777777777778 -s 1 -d 2 -p cbr -e 500 -c 1 -i 1 -a 1 -x {0.0 2.0 1 ------- null}
h -t 0.516777777777778 -s 1 -d 2 -p cbr -e 500 -c 1 -i 1 -a 1 -x {0.0 2.0 -1 ------- null}
+ -t 0.52 -s 0 -d 1 -p cbr -e 500 -c 1 -i 4 -a 1 -x {0.0 2.0 4 ------- null}
- -t 0.52 -s 0 -d 1 -p cbr -e 500 -c 1 -i 4 -a 1 -x {0.0 2.0 4 ------- null}
h -t 0.52 -s 0 -d 1 -p cbr -e 500 -c 1 -i 4 -a 1 -x {0.0 2.0 -1 ------- null}
r -t 0.521777777777778 -s 0 -d 1 -p cbr -e 500 -c 1 -i 2 -a 1 -x {0.0 2.0 2 ------- null}
+ -t 0.521777777777778 -s 1 -d 2 -p cbr -e 500 -c 1 -i 2 -a 1 -x {0.0 2.0 2 ------- null}
- -t 0.521777777777778 -s 1 -d 2 -p cbr -e 500 -c 1 -i 2 -a 1 -x {0.0 2.0 2 ------- null}
h -t 0.521777777777778 -s 1 -d 2 -p cbr -e 500 -c 1 -i 2 -a 1 -x {0.0 2.0 -1 ------- null}
+ -t 0.525 -s 0 -d 1 -p cbr -e 500 -c 1 -i 5 -a 1 -x {0.0 2.0 5 ------- null}
- -t 0.525 -s 0 -d 1 -p cbr -e 500 -c 1 -i 5 -a 1 -x {0.0 2.0 5 ------- null}
h -t 0.525 -s 0 -d 1 -p cbr -e 500 -c 1 -i 5 -a 1 -x {0.0 2.0 -1 ------- null}
r -t 0.526777777777778 -s 0 -d 1 -p cbr -e 500 -c 1 -i 3 -a 1 -x {0.0 2.0 3 ------- null}
+ -t 0.526777777777778 -s 1 -d 2 -p cbr -e 500 -c 1 -i 3 -a 1 -x {0.0 2.0 3 ------- null}
- -t 0.526777777777778 -s 1 -d 2 -p cbr -e 500 -c 1 -i 3 -a 1 -x {0.0 2.0 3 ------- null}
h -t 0.526777777777778 -s 1 -d 2 -p cbr -e 500 -c 1 -i 3 -a 1 -x {0.0 2.0 -1 ------- null}
+ -t 0.53 -s 0 -d 1 -p cbr -e 500 -c 1 -i 6 -a 1 -x {0.0 2.0 6 ------- null}
- -t 0.53 -s 0 -d 1 -p cbr -e 500 -c 1 -i 6 -a 1 -x {0.0 2.0 6 ------- null}
h -t 0.53 -s 0 -d 1 -p cbr -e 500 -c 1 -i 6 -a 1 -x {0.0 2.0 -1 ------- null}
r -t 0.531777777777778 -s 0 -d 1 -p cbr -e 500 -c 1 -i 4 -a 1 -x {0.0 2.0 4 ------- null}
+ -t 0.531777777777778 -s 1 -d 2 -p cbr -e 500 -c 1 -i 4 -a 1 -x {0.0 2.0 4 ------- null}
- -t 0.531777777777778 -s 1 -d 2 -p cbr -e 500 -c 1 -i 4 -a 1 -x {0.0 2.0 4 ------- null}
h -t 0.531777777777778 -s 1 -d 2 -p cbr -e 500 -c 1 -i 4 -a 1 -x {0.0 2.0 -1 ------- null}
r -t 0.533555555555556 -s 1 -d 2 -p cbr -e 500 -c 1 -i 0 -a 1 -x {0.0 2.0 0 ------- null}
+ -t 0.535 -s 0 -d 1 -p cbr -e 500 -c 1 -i 7 -a 1 -x {0.0 2.0 7 ------- null}
- -t 0.535 -s 0 -d 1 -p cbr -e 500 -c 1 -i 7 -a 1 -x {0.0 2.0 7 ------- null}
h -t 0.535 -s 0 -d 1 -p cbr -e 500 -c 1 -i 7 -a 1 -x {0.0 2.0 -1 ------- null}
r -t 0.536777777777778 -s 0 -d 1 -p cbr -e 500 -c 1 -i 5 -a 1 -x {0.0 2.0 5 ------- null}
+ -t 0.536777777777778 -s 1 -d 2 -p cbr -e 500 -c 1 -i 5 -a 1 -x {0.0 2.0 5 ------- null}
- -t 0.536777777777778 -s 1 -d 2 -p cbr -e 500 -c 1 -i 5 -a 1 -x {0.0 2.0 5 ------- null}
h -t 0.536777777777778 -s 1 -d 2 -p cbr -e 500 -c 1 -i 5 -a 1 -x {0.0 2.0 -1 ------- null}
r -t 0.538555555555556 -s 1 -d 2 -p cbr -e 500 -c 1 -i 1 -a 1 -x {0.0 2.0 1 ------- null}
+ -t 0.54 -s 0 -d 1 -p cbr -e 500 -c 1 -i 8 -a 1 -x {0.0 2.0 8 ------- null}
- -t 0.54 -s 0 -d 1 -p cbr -e 500 -c 1 -i 8 -a 1 -x {0.0 2.0 8 ------- null}
h -t 0.54 -s 0 -d 1 -p cbr -e 500 -c 1 -i 8 -a 1 -x {0.0 2.0 -1 ------- null}
r -t 0.541777777777778 -s 0 -d 1 -p cbr -e 500 -c 1 -i 6 -a 1 -x {0.0 2.0 6 ------- null}
+ -t 0.541777777777778 -s 1 -d 2 -p cbr -e 500 -c 1 -i 6 -a 1 -x {0.0 2.0 6 ------- null}
- -t 0.541777777777778 -s 1 -d 2 -p cbr -e 500 -c 1 -i 6 -a 1 -x {0.0 2.0 6 ------- null}
h -t 0.541777777777778 -s 1 -d 2 -p cbr -e 500 -c 1 -i 6 -a 1 -x {0.0 2.0 -1 ------- null}
r -t 0.543555555555556 -s 1 -d 2 -p cbr -e 500 -c 1 -i 2 -a 1 -x {0.0 2.0 2 ------- null}
+ -t 0.545 -s 0 -d 1 -p cbr -e 500 -c 1 -i 9 -a 1 -x {0.0 2.0 9 ------- null}
- -t 0.545 -s 0 -d 1 -p cbr -e 500 -c 1 -i 9 -a 1 -x {0.0 2.0 9 ------- null}
h -t 0.545 -s 0 -d 1 -p cbr -e 500 -c 1 -i 9 -a 1 -x {0.0 2.0 -1 ------- null}
r -t 0.546777777777778 -s 0 -d 1 -p cbr -e 500 -c 1 -i 7 -a 1 -x {0.0 2.0 7 ------- null}
+ -t 0.546777777777778 -s 1 -d 2 -p cbr -e 500 -c 1 -i 7 -a 1 -x {0.0 2.0 7 ------- null}
- -t 0.546777777777778 -s 1 -d 2 -p cbr -e 500 -c 1 -i 7 -a 1 -x {0.0 2.0 7 ------- null}
h -t 0.546777777777778 -s 1 -d 2 -p cbr -e 500 -c 1 -i 7 -a 1 -x {0.0 2.0 -1 ------- null}
r -t 0.548555555555556 -s 1 -d 2 -p cbr -e 500 -c 1 -i 3 -a 1 -x {0.0 2.0 3 ------- null}
+ -t 0.55 -s 0 -d 1 -p cbr -e 500 -c 1 -i 10 -a 1 -x {0.0 2.0 10 ------- null}
- -t 0.55 -s 0 -d 1 -p cbr -e 500 -c 1 -i 10 -a 1 -x {0.0 2.0 10 ------- null}
h -t 0.55 -s 0 -d 1 -p cbr -e 500 -c 1 -i 10 -a 1 -x {0.0 2.0 -1 ------- null}
r -t 0.551777777777778 -s 0 -d 1 -p cbr -e 500 -c 1 -i 8 -a 1 -x {0.0 2.0 8 ------- null}
+ -t 0.551777777777778 -s 1 -d 2 -p cbr -e 500 -c 1 -i 8 -a 1 -x {0.0 2.0 8 ------- null}
- -t 0.551777777777778 -s 1 -d 2 -p cbr -e 500 -c 1 -i 8 -a 1 -x {0.0 2.0 8 ------- null}
h -t 0.551777777777778 -s 1 -d 2 -p cbr -e 500 -c 1 -i 8 -a 1 -x {0.0 2.0 -1 ------- null}
r -t 0.553555555555556 -s 1 -d 2 -p cbr -e 500 -c 1 -i 4 -a 1 -x {0.0 2.0 4 ------- null}
+ -t 0.555 -s 0 -d 1 -p cbr -e 500 -c 1 -i 11 -a 1 -x {0.0 2.0 11 ------- null}
- -t 0.555 -s 0 -d 1 -p cbr -e 500 -c 1 -i 11 -a 1 -x {0.0 2.0 11 ------- null}
h -t 0.555 -s 0 -d 1 -p cbr -e 500 -c 1 -i 11 -a 1 -x {0.0 2.0 -1 ------- null}
r -t 0.556777777777778 -s 0 -d 1 -p cbr -e 500 -c 1 -i 9 -a 1 -x {0.0 2.0 9 ------- null}
+ -t 0.556777777777778 -s 1 -d 2 -p cbr -e 500 -c 1 -i 9 -a 1 -x {0.0 2.0 9 ------- null}
- -t 0.556777777777778 -s 1 -d 2 -p cbr -e 500 -c 1 -i 9 -a 1 -x {0.0 2.0 9 ------- null}
h -t 0.556777777777778 -s 1 -d 2 -p cbr -e 500 -c 1 -i 9 -a 1 -x {0.0 2.0 -1 ------- null}
r -t 0.558555555555556 -s 1 -d 2 -p cbr -e 500 -c 1 -i 5 -a 1 -x {0.0 2.0 5 ------- null}
+ -t 0.56 -s 0 -d 1 -p cbr -e 500 -c 1 -i 12 -a 1 -x {0.0 2.0 12 ------- null}
- -t 0.56 -s 0 -d 1 -p cbr -e 500 -c 1 -i 12 -a 1 -x {0.0 2.0 12 ------- null}
h -t 0.56 -s 0 -d 1 -p cbr -e 500 -c 1 -i 12 -a 1 -x {0.0 2.0 -1 ------- null}
r -t 0.561777777777778 -s 0 -d 1 -p cbr -e 500 -c 1 -i 10 -a 1 -x {0.0 2.0 10 ------- null}
+ -t 0.561777777777778 -s 1 -d 2 -p cbr -e 500 -c 1 -i 10 -a 1 -x {0.0 2.0 10 ------- null}
- -t 0.561777777777778 -s 1 -d 2 -p cbr -e 500 -c 1 -i 10 -a 1 -x {0.0 2.0 10 ------- null}
h -t 0.561777777777778 -s 1 -d 2 -p cbr -e 500 -c 1 -i 10 -a 1 -x {0.0 2.0 -1 ------- null}
r -t 0.563555555555556 -s 1 -d 2 -p cbr -e 500 -c 1 -i 6 -a 1 -x {0.0 2.0 6 ------- null}
+ -t 0.565 -s 0 -d 1 -p cbr -e 500 -c 1 -i 13 -a 1 -x {0.0 2.0 13 ------- null}
- -t 0.565 -s 0 -d 1 -p cbr -e 500 -c 1 -i 13 -a 1 -x {0.0 2.0 13 ------- null}
h -t 0.565 -s 0 -d 1 -p cbr -e 500 -c 1 -i 13 -a 1 -x {0.0 2.0 -1 ------- null}
r -t 0.566777777777778 -s 0 -d 1 -p cbr -e 500 -c 1 -i 11 -a 1 -x {0.0 2.0 11 ------- null}
+ -t 0.566777777777778 -s 1 -d 2 -p cbr -e 500 -c 1 -i 11 -a 1 -x {0.0 2.0 11 ------- null}
- -t 0.566777777777778 -s 1 -d 2 -p cbr -e 500 -c 1 -i 11 -a 1 -x {0.0 2.0 11 ------- null}
h -t 0.566777777777778 -s 1 -d 2 -p cbr -e 500 -c 1 -i 11 -a 1 -x {0.0 2.0 -1 ------- null}
r -t 0.568555555555556 -s 1 -d 2 -p cbr -e 500 -c 1 -i 7 -a 1 -x {0.0 2.0 7 ------- null}
+ -t 0.57 -s 0 -d 1 -p cbr -e 500 -c 1 -i 14 -a 1 -x {0.0 2.0 14 ------- null}
- -t 0.57 -s 0 -d 1 -p cbr -e 500 -c 1 -i 14 -a 1 -x {0.0 2.0 14 ------- null}
h -t 0.57 -s 0 -d 1 -p cbr -e 500 -c 1 -i 14 -a 1 -x {0.0 2.0 -1 ------- null}
r -t 0.571777777777778 -s 0 -d 1 -p cbr -e 500 -c 1 -i 12 -a 1 -x {0.0 2.0 12 ------- null}
+ -t 0.571777777777778 -s 1 -d 2 -p cbr -e 500 -c 1 -i 12 -a 1 -x {0.0 2.0 12 ------- null}
- -t 0.571777777777778 -s 1 -d 2 -p cbr -e 500 -c 1 -i 12 -a 1 -x {0.0 2.0 12 ------- null}
h -t 0.571777777777778 -s 1 -d 2 -p cbr -e 500 -c 1 -i 12 -a 1 -x {0.0 2.0 -1 ------- null}
r -t 0.573555555555556 -s 1 -d 2 -p cbr -e 500 -c 1 -i 8 -a 1 -x {0.0 2.0 8 ------- null}
+ -t 0.575 -s 0 -d 1 -p cbr -e 500 -c 1 -i 15 -a 1 -x {0.0 2.0 15 ------- null}
- -t 0.575 -s 0 -d 1 -p cbr -e 500 -c 1 -i 15 -a 1 -x {0.0 2.0 15 ------- null}
h -t 0.575 -s 0 -d 1 -p cbr -e 500 -c 1 -i 15 -a 1 -x {0.0 2.0 -1 ------- null}
r -t 0.576777777777778 -s 0 -d 1 -p cbr -e 500 -c 1 -i 13 -a 1 -x {0.0 2.0 13 ------- null}
+ -t 0.576777777777778 -s 1 -d 2 -p cbr -e 500 -c 1 -i 13 -a 1 -x {0.0 2.0 13 ------- null}
- -t 0.576777777777778 -s 1 -d 2 -p cbr -e 500 -c 1 -i 13 -a 1 -x {0.0 2.0 13 ------- null}
h -t 0.576777777777778 -s 1 -d 2 -p cbr -e 500 -c 1 -i 13 -a 1 -x {0.0 2.0 -1 ------- null}
r -t 0.578555555555556 -s 1 -d 2 -p cbr -e 500 -c 1 -i 9 -a 1 -x {0.0 2.0 9 ------- null}
+ -t 0.58 -s 0 -d 1 -p cbr -e 500 -c 1 -i 16 -a 1 -x {0.0 2.0 16 ------- null}
- -t 0.58 -s 0 -d 1 -p cbr -e 500 -c 1 -i 16 -a 1 -x {0.0 2.0 16 ------- null}
h -t 0.58 -s 0 -d 1 -p cbr -e 500 -c 1 -i 16 -a 1 -x {0.0 2.0 -1 ------- null}
r -t 0.581777777777778 -s 0 -d 1 -p cbr -e 500 -c 1 -i 14 -a 1 -x {0.0 2.0 14 ------- null}
+ -t 0.581777777777778 -s 1 -d 2 -p cbr -e 500 -c 1 -i 14 -a 1 -x {0.0 2.0 14 ------- null}
- -t 0.581777777777778 -s 1 -d 2 -p cbr -e 500 -c 1 -i 14 -a 1 -x {0.0 2.0 14 ------- null}
h -t 0.581777777777778 -s 1 -d 2 -p cbr -e 500 -c 1 -i 14 -a 1 -x {0.0 2.0 -1 ------- null}
r -t 0.583555555555556 -s 1 -d 2 -p cbr -e 500 -c 1 -i 10 -a 1 -x {0.0 2.0 10 ------- null}
+ -t 0.585 -s 0 -d 1 -p cbr -e 500 -c 1 -i 17 -a 1 -x {0.0 2.0 17 ------- null}
- -t 0.585 -s 0 -d 1 -p cbr -e 500 -c 1 -i 17 -a 1 -x {0.0 2.0 17 ------- null}
h -t 0.585 -s 0 -d 1 -p cbr -e 500 -c 1 -i 17 -a 1 -x {0.0 2.0 -1 ------- null}
r -t 0.586777777777778 -s 0 -d 1 -p cbr -e 500 -c 1 -i 15 -a 1 -x {0.0 2.0 15 ------- null}
+ -t 0.586777777777778 -s 1 -d 2 -p cbr -e 500 -c 1 -i 15 -a 1 -x {0.0 2.0 15 ------- null}
- -t 0.586777777777778 -s 1 -d 2 -p cbr -e 500 -c 1 -i 15 -a 1 -x {0.0 2.0 15 ------- null}
h -t 0.586777777777778 -s 1 -d 2 -p cbr -e 500 -c 1 -i 15 -a 1 -x {0.0 2.0 -1 ------- null}
r -t 0.588555555555556 -s 1 -d 2 -p cbr -e 500 -c 1 -i 11 -a 1 -x {0.0 2.0 11 ------- null}
+ -t 0.59 -s 0 -d 1 -p cbr -e 500 -c 1 -i 18 -a 1 -x {0.0 2.0 18 ------- null}
- -t 0.59 -s 0 -d 1 -p cbr -e 500 -c 1 -i 18 -a 1 -x {0.0 2.0 18 ------- null}
h -t 0.59 -s 0 -d 1 -p cbr -e 500 -c 1 -i 18 -a 1 -x {0.0 2.0 -1 ------- null}
r -t 0.591777777777778 -s 0 -d 1 -p cbr -e 500 -c 1 -i 16 -a 1 -x {0.0 2.0 16 ------- null}
+ -t 0.591777777777778 -s 1 -d 2 -p cbr -e 500 -c 1 -i 16 -a 1 -x {0.0 2.0 16 ------- null}
- -t 0.591777777777778 -s 1 -d 2 -p cbr -e 500 -c 1 -i 16 -a 1 -x {0.0 2.0 16 ------- null}
h -t 0.591777777777778 -s 1 -d 2 -p cbr -e 500 -c 1 -i 16 -a 1 -x {0.0 2.0 -1 ------- null}
r -t 0.593555555555556 -s 1 -d 2 -p cbr -e 500 -c 1 -i 12 -a 1 -x {0.0 2.0 12 ------- null}
+ -t 0.595 -s 0 -d 1 -p cbr -e 500 -c 1 -i 19 -a 1 -x {0.0 2.0 19 ------- null}
- -t 0.595 -s 0 -d 1 -p cbr -e 500 -c 1 -i 19 -a 1 -x {0.0 2.0 19 ------- null}
h -t 0.595 -s 0 -d 1 -p cbr -e 500 -c 1 -i 19 -a 1 -x {0.0 2.0 -1 ------- null}
r -t 0.596777777777778 -s 0 -d 1 -p cbr -e 500 -c 1 -i 17 -a 1 -x {0.0 2.0 17 ------- null}
+ -t 0.596777777777778 -s 1 -d 2 -p cbr -e 500 -c 1 -i 17 -a 1 -x {0.0 2.0 17 ------- null}
- -t 0.596777777777778 -s 1 -d 2 -p cbr -e 500 -c 1 -i 17 -a 1 -x {0.0 2.0 17 ------- null}
h -t 0.596777777777778 -s 1 -d 2 -p cbr -e 500 -c 1 -i 17 -a 1 -x {0.0 2.0 -1 ------- null}
r -t 0.598555555555556 -s 1 -d 2 -p cbr -e 500 -c 1 -i 13 -a 1 -x {0.0 2.0 13 ------- null}
+ -t 0.6 -s 0 -d 1 -p cbr -e 500 -c 1 -i 20 -a 1 -x {0.0 2.0 20 ------- null}
- -t 0.6 -s 0 -d 1 -p cbr -e 500 -c 1 -i 20 -a 1 -x {0.0 2.0 20 ------- null}
h -t 0.6 -s 0 -d 1 -p cbr -e 500 -c 1 -i 20 -a 1 -x {0.0 2.0 -1 ------- null}
r -t 0.601777777777778 -s 0 -d 1 -p cbr -e 500 -c 1 -i 18 -a 1 -x {0.0 2.0 18 ------- null}
+ -t 0.601777777777778 -s 1 -d 2 -p cbr -e 500 -c 1 -i 18 -a 1 -x {0.0 2.0 18 ------- null}
- -t 0.601777777777778 -s 1 -d 2 -p cbr -e 500 -c 1 -i 18 -a 1 -x {0.0 2.0 18 ------- null}
h -t 0.601777777777778 -s 1 -d 2 -p cbr -e 500 -c 1 -i 18 -a 1 -x {0.0 2.0 -1 ------- null}
r -t 0.603555555555556 -s 1 -d 2 -p cbr -e 500 -c 1 -i 14 -a 1 -x {0.0 2.0 14 ------- null}
+ -t 0.605 -s 0 -d 1 -p cbr -e 500 -c 1 -i 21 -a 1 -x {0.0 2.0 21 ------- null}
- -t 0.605 -s 0 -d 1 -p cbr -e 500 -c 1 -i 21 -a 1 -x {0.0 2.0 21 ------- null}
h -t 0.605 -s 0 -d 1 -p cbr -e 500 -c 1 -i 21 -a 1 -x {0.0 2.0 -1 ------- null}
r -t 0.606777777777778 -s 0 -d 1 -p cbr -e 500 -c 1 -i 19 -a 1 -x {0.0 2.0 19 ------- null}
+ -t 0.606777777777778 -s 1 -d 2 -p cbr -e 500 -c 1 -i 19 -a 1 -x {0.0 2.0 19 ------- null}
- -t 0.606777777777778 -s 1 -d 2 -p cbr -e 500 -c 1 -i 19 -a 1 -x {0.0 2.0 19 ------- null}
h -t 0.606777777777778 -s 1 -d 2 -p cbr -e 500 -c 1 -i 19 -a 1 -x {0.0 2.0 -1 ------- null}
r -t 0.608555555555556 -s 1 -d 2 -p cbr -e 500 -c 1 -i 15 -a 1 -x {0.0 2.0 15 ------- null}
+ -t 0.61 -s 0 -d 1 -p cbr -e 500 -c 1 -i 22 -a 1 -x {0.0 2.0 22 ------- null}
- -t 0.61 -s 0 -d 1 -p cbr -e 500 -c 1 -i 22 -a 1 -x {0.0 2.0 22 ------- null}
h -t 0.61 -s 0 -d 1 -p cbr -e 500 -c 1 -i 22 -a 1 -x {0.0 2.0 -1 ------- null}
r -t 0.611777777777778 -s 0 -d 1 -p cbr -e 500 -c 1 -i 20 -a 1 -x {0.0 2.0 20 ------- null}
+ -t 0.611777777777778 -s 1 -d 2 -p cbr -e 500 -c 1 -i 20 -a 1 -x {0.0 2.0 20 ------- null}
- -t 0.611777777777778 -s 1 -d 2 -p cbr -e 500 -c 1 -i 20 -a 1 -x {0.0 2.0 20 ------- null}
h -t 0.611777777777778 -s 1 -d 2 -p cbr -e 500 -c 1 -i 20 -a 1 -x {0.0 2.0 -1 ------- null}
r -t 0.613555555555556 -s 1 -d 2 -p cbr -e 500 -c 1 -i 16 -a 1 -x {0.0 2.0 16 ------- null}
+ -t 0.615 -s 0 -d 1 -p cbr -e 500 -c 1 -i 23 -a 1 -x {0.0 2.0 23 ------- null}
- -t 0.615 -s 0 -d 1 -p cbr -e 500 -c 1 -i 23 -a 1 -x {0.0 2.0 23 ------- null}
h -t 0.615 -s 0 -d 1 -p cbr -e 500 -c 1 -i 23 -a 1 -x {0.0 2.0 -1 ------- null}
r -t 0.616777777777778 -s 0 -d 1 -p cbr -e 500 -c 1 -i 21 -a 1 -x {0.0 2.0 21 ------- null}
+ -t 0.616777777777778 -s 1 -d 2 -p cbr -e 500 -c 1 -i 21 -a 1 -x {0.0 2.0 21 ------- null}
- -t 0.616777777777778 -s 1 -d 2 -p cbr -e 500 -c 1 -i 21 -a 1 -x {0.0 2.0 21 ------- null}
h -t 0.616777777777778 -s 1 -d 2 -p cbr -e 500 -c 1 -i 21 -a 1 -x {0.0 2.0 -1 ------- null}
r -t 0.618555555555556 -s 1 -d 2 -p cbr -e 500 -c 1 -i 17 -a 1 -x {0.0 2.0 17 ------- null}
+ -t 0.62 -s 0 -d 1 -p cbr -e 500 -c 1 -i 24 -a 1 -x {0.0 2.0 24 ------- null}
- -t 0.62 -s 0 -d 1 -p cbr -e 500 -c 1 -i 24 -a 1 -x {0.0 2.0 24 ------- null}
h -t 0.62 -s 0 -d 1 -p cbr -e 500 -c 1 -i 24 -a 1 -x {0.0 2.0 -1 ------- null}
r -t 0.621777777777778 -s 0 -d 1 -p cbr -e 500 -c 1 -i 22 -a 1 -x {0.0 2.0 22 ------- null}
+ -t 0.621777777777778 -s 1 -d 2 -p cbr -e 500 -c 1 -i 22 -a 1 -x {0.0 2.0 22 ------- null}
- -t 0.621777777777778 -s 1 -d 2 -p cbr -e 500 -c 1 -i 22 -a 1 -x {0.0 2.0 22 ------- null}
h -t 0.621777777777778 -s 1 -d 2 -p cbr -e 500 -c 1 -i 22 -a 1 -x {0.0 2.0 -1 ------- null}
r -t 0.623555555555556 -s 1 -d 2 -p cbr -e 500 -c 1 -i 18 -a 1 -x {0.0 2.0 18 ------- null}
+ -t 0.625 -s 0 -d 1 -p cbr -e 500 -c 1 -i 25 -a 1 -x {0.0 2.0 25 ------- null}
- -t 0.625 -s 0 -d 1 -p cbr -e 500 -c 1 -i 25 -a 1 -x {0.0 2.0 25 ------- null}
h -t 0.625 -s 0 -d 1 -p cbr -e 500 -c 1 -i 25 -a 1 -x {0.0 2.0 -1 ------- null}
r -t 0.626777777777778 -s 0 -d 1 -p cbr -e 500 -c 1 -i 23 -a 1 -x {0.0 2.0 23 ------- null}
+ -t 0.626777777777778 -s 1 -d 2 -p cbr -e 500 -c 1 -i 23 -a 1 -x {0.0 2.0 23 ------- null}
- -t 0.626777777777778 -s 1 -d 2 -p cbr -e 500 -c 1 -i 23 -a 1 -x {0.0 2.0 23 ------- null}
h -t 0.626777777777778 -s 1 -d 2 -p cbr -e 500 -c 1 -i 23 -a 1 -x {0.0 2.0 -1 ------- null}
r -t 0.628555555555556 -s 1 -d 2 -p cbr -e 500 -c 1 -i 19 -a 1 -x {0.0 2.0 19 ------- null}
+ -t 0.63 -s 0 -d 1 -p cbr -e 500 -c 1 -i 26 -a 1 -x {0.0 2.0 26 ------- null}
- -t 0.63 -s 0 -d 1 -p cbr -e 500 -c 1 -i 26 -a 1 -x {0.0 2.0 26 ------- null}
h -t 0.63 -s 0 -d 1 -p cbr -e 500 -c 1 -i 26 -a 1 -x {0.0 2.0 -1 ------- null}
r -t 0.631777777777778 -s 0 -d 1 -p cbr -e 500 -c 1 -i 24 -a 1 -x {0.0 2.0 24 ------- null}
+ -t 0.631777777777778 -s 1 -d 2 -p cbr -e 500 -c 1 -i 24 -a 1 -x {0.0 2.0 24 ------- null}
- -t 0.631777777777778 -s 1 -d 2 -p cbr -e 500 -c 1 -i 24 -a 1 -x {0.0 2.0 24 ------- null}
h -t 0.631777777777778 -s 1 -d 2 -p cbr -e 500 -c 1 -i 24 -a 1 -x {0.0 2.0 -1 ------- null}
r -t 0.633555555555556 -s 1 -d 2 -p cbr -e 500 -c 1 -i 20 -a 1 -x {0.0 2.0 20 ------- null}
+ -t 0.635 -s 0 -d 1 -p cbr -e 500 -c 1 -i 27 -a 1 -x {0.0 2.0 27 ------- null}
- -t 0.635 -s 0 -d 1 -p cbr -e 500 -c 1 -i 27 -a 1 -x {0.0 2.0 27 ------- null}
h -t 0.635 -s 0 -d 1 -p cbr -e 500 -c 1 -i 27 -a 1 -x {0.0 2.0 -1 ------- null}
r -t 0.636777777777778 -s 0 -d 1 -p cbr -e 500 -c 1 -i 25 -a 1 -x {0.0 2.0 25 ------- null}
+ -t 0.636777777777778 -s 1 -d 2 -p cbr -e 500 -c 1 -i 25 -a 1 -x {0.0 2.0 25 ------- null}
- -t 0.636777777777778 -s 1 -d 2 -p cbr -e 500 -c 1 -i 25 -a 1 -x {0.0 2.0 25 ------- null}
h -t 0.636777777777778 -s 1 -d 2 -p cbr -e 500 -c 1 -i 25 -a 1 -x {0.0 2.0 -1 ------- null}
r -t 0.638555555555556 -s 1 -d 2 -p cbr -e 500 -c 1 -i 21 -a 1 -x {0.0 2.0 21 ------- null}
+ -t 0.64 -s 0 -d 1 -p cbr -e 500 -c 1 -i 28 -a 1 -x {0.0 2.0 28 ------- null}
- -t 0.64 -s 0 -d 1 -p cbr -e 500 -c 1 -i 28 -a 1 -x {0.0 2.0 28 ------- null}
h -t 0.64 -s 0 -d 1 -p cbr -e 500 -c 1 -i 28 -a 1 -x {0.0 2.0 -1 ------- null}
r -t 0.641777777777778 -s 0 -d 1 -p cbr -e 500 -c 1 -i 26 -a 1 -x {0.0 2.0 26 ------- null}
+ -t 0.641777777777778 -s 1 -d 2 -p cbr -e 500 -c 1 -i 26 -a 1 -x {0.0 2.0 26 ------- null}
- -t 0.641777777777778 -s 1 -d 2 -p cbr -e 500 -c 1 -i 26 -a 1 -x {0.0 2.0 26 ------- null}
h -t 0.641777777777778 -s 1 -d 2 -p cbr -e 500 -c 1 -i 26 -a 1 -x {0.0 2.0 -1 ------- null}
r -t 0.643555555555556 -s 1 -d 2 -p cbr -e 500 -c 1 -i 22 -a 1 -x {0.0 2.0 22 ------- null}
+ -t 0.645 -s 0 -d 1 -p cbr -e 500 -c 1 -i 29 -a 1 -x {0.0 2.0 29 ------- null}
- -t 0.645 -s 0 -d 1 -p cbr -e 500 -c 1 -i 29 -a 1 -x {0.0 2.0 29 ------- null}
h -t 0.645 -s 0 -d 1 -p cbr -e 500 -c 1 -i 29 -a 1 -x {0.0 2.0 -1 ------- null}
r -t 0.646777777777778 -s 0 -d 1 -p cbr -e 500 -c 1 -i 27 -a 1 -x {0.0 2.0 27 ------- null}
+ -t 0.646777777777778 -s 1 -d 2 -p cbr -e 500 -c 1 -i 27 -a 1 -x {0.0 2.0 27 ------- null}
- -t 0.646777777777778 -s 1 -d 2 -p cbr -e 500 -c 1 -i 27 -a 1 -x {0.0 2.0 27 ------- null}
h -t 0.646777777777778 -s 1 -d 2 -p cbr -e 500 -c 1 -i 27 -a 1 -x {0.0 2.0 -1 ------- null}
r -t 0.648555555555556 -s 1 -d 2 -p cbr -e 500 -c 1 -i 23 -a 1 -x {0.0 2.0 23 ------- null}
+ -t 0.65 -s 0 -d 1 -p cbr -e 500 -c 1 -i 30 -a 1 -x {0.0 2.0 30 ------- null}
- -t 0.65 -s 0 -d 1 -p cbr -e 500 -c 1 -i 30 -a 1 -x {0.0 2.0 30 ------- null}
h -t 0.65 -s 0 -d 1 -p cbr -e 500 -c 1 -i 30 -a 1 -x {0.0 2.0 -1 ------- null}
r -t 0.651777777777778 -s 0 -d 1 -p cbr -e 500 -c 1 -i 28 -a 1 -x {0.0 2.0 28 ------- null}
+ -t 0.651777777777778 -s 1 -d 2 -p cbr -e 500 -c 1 -i 28 -a 1 -x {0.0 2.0 28 ------- null}
- -t 0.651777777777778 -s 1 -d 2 -p cbr -e 500 -c 1 -i 28 -a 1 -x {0.0 2.0 28 ------- null}
h -t 0.651777777777778 -s 1 -d 2 -p cbr -e 500 -c 1 -i 28 -a 1 -x {0.0 2.0 -1 ------- null}
r -t 0.653555555555556 -s 1 -d 2 -p cbr -e 500 -c 1 -i 24 -a 1 -x {0.0 2.0 24 ------- null}
+ -t 0.655 -s 0 -d 1 -p cbr -e 500 -c 1 -i 31 -a 1 -x {0.0 2.0 31 ------- null}
- -t 0.655 -s 0 -d 1 -p cbr -e 500 -c 1 -i 31 -a 1 -x {0.0 2.0 31 ------- null}
h -t 0.655 -s 0 -d 1 -p cbr -e 500 -c 1 -i 31 -a 1 -x {0.0 2.0 -1 ------- null}
r -t 0.656777777777778 -s 0 -d 1 -p cbr -e 500 -c 1 -i 29 -a 1 -x {0.0 2.0 29 ------- null}
+ -t 0.656777777777778 -s 1 -d 2 -p cbr -e 500 -c 1 -i 29 -a 1 -x {0.0 2.0 29 ------- null}
- -t 0.656777777777778 -s 1 -d 2 -p cbr -e 500 -c 1 -i 29 -a 1 -x {0.0 2.0 29 ------- null}
h -t 0.656777777777778 -s 1 -d 2 -p cbr -e 500 -c 1 -i 29 -a 1 -x {0.0 2.0 -1 ------- null}
r -t 0.658555555555556 -s 1 -d 2 -p cbr -e 500 -c 1 -i 25 -a 1 -x {0.0 2.0 25 ------- null}
+ -t 0.66 -s 0 -d 1 -p cbr -e 500 -c 1 -i 32 -a 1 -x {0.0 2.0 32 ------- null}
- -t 0.66 -s 0 -d 1 -p cbr -e 500 -c 1 -i 32 -a 1 -x {0.0 2.0 32 ------- null}
h -t 0.66 -s 0 -d 1 -p cbr -e 500 -c 1 -i 32 -a 1 -x {0.0 2.0 -1 ------- null}
r -t 0.661777777777778 -s 0 -d 1 -p cbr -e 500 -c 1 -i 30 -a 1 -x {0.0 2.0 30 ------- null}
+ -t 0.661777777777778 -s 1 -d 2 -p cbr -e 500 -c 1 -i 30 -a 1 -x {0.0 2.0 30 ------- null}
- -t 0.661777777777778 -s 1 -d 2 -p cbr -e 500 -c 1 -i 30 -a 1 -x {0.0 2.0 30 ------- null}
h -t 0.661777777777778 -s 1 -d 2 -p cbr -e 500 -c 1 -i 30 -a 1 -x {0.0 2.0 -1 ------- null}
r -t 0.663555555555556 -s 1 -d 2 -p cbr -e 500 -c 1 -i 26 -a 1 -x {0.0 2.0 26 ------- null}
+ -t 0.665 -s 0 -d 1 -p cbr -e 500 -c 1 -i 33 -a 1 -x {0.0 2.0 33 ------- null}
- -t 0.665 -s 0 -d 1 -p cbr -e 500 -c 1 -i 33 -a 1 -x {0.0 2.0 33 ------- null}
h -t 0.665 -s 0 -d 1 -p cbr -e 500 -c 1 -i 33 -a 1 -x {0.0 2.0 -1 ------- null}
r -t 0.666777777777778 -s 0 -d 1 -p cbr -e 500 -c 1 -i 31 -a 1 -x {0.0 2.0 31 ------- null}
+ -t 0.666777777777778 -s 1 -d 2 -p cbr -e 500 -c 1 -i 31 -a 1 -x {0.0 2.0 31 ------- null}
- -t 0.666777777777778 -s 1 -d 2 -p cbr -e 500 -c 1 -i 31 -a 1 -x {0.0 2.0 31 ------- null}
h -t 0.666777777777778 -s 1 -d 2 -p cbr -e 500 -c 1 -i 31 -a 1 -x {0.0 2.0 -1 ------- null}
r -t 0.668555555555556 -s 1 -d 2 -p cbr -e 500 -c 1 -i 27 -a 1 -x {0.0 2.0 27 ------- null}
+ -t 0.67 -s 0 -d 1 -p cbr -e 500 -c 1 -i 34 -a 1 -x {0.0 2.0 34 ------- null}
- -t 0.67 -s 0 -d 1 -p cbr -e 500 -c 1 -i 34 -a 1 -x {0.0 2.0 34 ------- null}
h -t 0.67 -s 0 -d 1 -p cbr -e 500 -c 1 -i 34 -a 1 -x {0.0 2.0 -1 ------- null}
r -t 0.671777777777778 -s 0 -d 1 -p cbr -e 500 -c 1 -i 32 -a 1 -x {0.0 2.0 32 ------- null}
+ -t 0.671777777777778 -s 1 -d 2 -p cbr -e 500 -c 1 -i 32 -a 1 -x {0.0 2.0 32 ------- null}
- -t 0.671777777777778 -s 1 -d 2 -p cbr -e 500 -c 1 -i 32 -a 1 -x {0.0 2.0 32 ------- null}
h -t 0.671777777777778 -s 1 -d 2 -p cbr -e 500 -c 1 -i 32 -a 1 -x {0.0 2.0 -1 ------- null}
r -t 0.673555555555556 -s 1 -d 2 -p cbr -e 500 -c 1 -i 28 -a 1 -x {0.0 2.0 28 ------- null}
+ -t 0.675 -s 0 -d 1 -p cbr -e 500 -c 1 -i 35 -a 1 -x {0.0 2.0 35 ------- null}
- -t 0.675 -s 0 -d 1 -p cbr -e 500 -c 1 -i 35 -a 1 -x {0.0 2.0 35 ------- null}
h -t 0.675 -s 0 -d 1 -p cbr -e 500 -c 1 -i 35 -a 1 -x {0.0 2.0 -1 ------- null}
r -t 0.676777777777778 -s 0 -d 1 -p cbr -e 500 -c 1 -i 33 -a 1 -x {0.0 2.0 33 ------- null}
+ -t 0.676777777777778 -s 1 -d 2 -p cbr -e 500 -c 1 -i 33 -a 1 -x {0.0 2.0 33 ------- null}
- -t 0.676777777777778 -s 1 -d 2 -p cbr -e 500 -c 1 -i 33 -a 1 -x {0.0 2.0 33 ------- null}
h -t 0.676777777777778 -s 1 -d 2 -p cbr -e 500 -c 1 -i 33 -a 1 -x {0.0 2.0 -1 ------- null}
r -t 0.678555555555556 -s 1 -d 2 -p cbr -e 500 -c 1 -i 29 -a 1 -x {0.0 2.0 29 ------- null}
+ -t 0.68 -s 0 -d 1 -p cbr -e 500 -c 1 -i 36 -a 1 -x {0.0 2.0 36 ------- null}
- -t 0.68 -s 0 -d 1 -p cbr -e 500 -c 1 -i 36 -a 1 -x {0.0 2.0 36 ------- null}
h -t 0.68 -s 0 -d 1 -p cbr -e 500 -c 1 -i 36 -a 1 -x {0.0 2.0 -1 ------- null}
r -t 0.681777777777778 -s 0 -d 1 -p cbr -e 500 -c 1 -i 34 -a 1 -x {0.0 2.0 34 ------- null}
+ -t 0.681777777777778 -s 1 -d 2 -p cbr -e 500 -c 1 -i 34 -a 1 -x {0.0 2.0 34 ------- null}
- -t 0.681777777777778 -s 1 -d 2 -p cbr -e 500 -c 1 -i 34 -a 1 -x {0.0 2.0 34 ------- null}
h -t 0.681777777777778 -s 1 -d 2 -p cbr -e 500 -c 1 -i 34 -a 1 -x {0.0 2.0 -1 ------- null}
r -t 0.683555555555556 -s 1 -d 2 -p cbr -e 500 -c 1 -i 30 -a 1 -x {0.0 2.0 30 ------- null}
+ -t 0.685 -s 0 -d 1 -p cbr -e 500 -c 1 -i 37 -a 1 -x {0.0 2.0 37 ------- null}
- -t 0.685 -s 0 -d 1 -p cbr -e 500 -c 1 -i 37 -a 1 -x {0.0 2.0 37 ------- null}
h -t 0.685 -s 0 -d 1 -p cbr -e 500 -c 1 -i 37 -a 1 -x {0.0 2.0 -1 ------- null}
r -t 0.686777777777778 -s 0 -d 1 -p cbr -e 500 -c 1 -i 35 -a 1 -x {0.0 2.0 35 ------- null}
+ -t 0.686777777777778 -s 1 -d 2 -p cbr -e 500 -c 1 -i 35 -a 1 -x {0.0 2.0 35 ------- null}
- -t 0.686777777777778 -s 1 -d 2 -p cbr -e 500 -c 1 -i 35 -a 1 -x {0.0 2.0 35 ------- null}
h -t 0.686777777777778 -s 1 -d 2 -p cbr -e 500 -c 1 -i 35 -a 1 -x {0.0 2.0 -1 ------- null}
r -t 0.688555555555556 -s 1 -d 2 -p cbr -e 500 -c 1 -i 31 -a 1 -x {0.0 2.0 31 ------- null}
+ -t 0.69 -s 0 -d 1 -p cbr -e 500 -c 1 -i 38 -a 1 -x {0.0 2.0 38 ------- null}
- -t 0.69 -s 0 -d 1 -p cbr -e 500 -c 1 -i 38 -a 1 -x {0.0 2.0 38 ------- null}
h -t 0.69 -s 0 -d 1 -p cbr -e 500 -c 1 -i 38 -a 1 -x {0.0 2.0 -1 ------- null}
r -t 0.691777777777778 -s 0 -d 1 -p cbr -e 500 -c 1 -i 36 -a 1 -x {0.0 2.0 36 ------- null}
+ -t 0.691777777777778 -s 1 -d 2 -p cbr -e 500 -c 1 -i 36 -a 1 -x {0.0 2.0 36 ------- null}
- -t 0.691777777777778 -s 1 -d 2 -p cbr -e 500 -c 1 -i 36 -a 1 -x {0.0 2.0 36 ------- null}
h -t 0.691777777777778 -s 1 -d 2 -p cbr -e 500 -c 1 -i 36 -a 1 -x {0.0 2.0 -1 ------- null}
r -t 0.693555555555556 -s 1 -d 2 -p cbr -e 500 -c 1 -i 32 -a 1 -x {0.0 2.0 32 ------- null}
+ -t 0.695 -s 0 -d 1 -p cbr -e 500 -c 1 -i 39 -a 1 -x {0.0 2.0 39 ------- null}
- -t 0.695 -s 0 -d 1 -p cbr -e 500 -c 1 -i 39 -a 1 -x {0.0 2.0 39 ------- null}
h -t 0.695 -s 0 -d 1 -p cbr -e 500 -c 1 -i 39 -a 1 -x {0.0 2.0 -1 ------- null}
r -t 0.696777777777778 -s 0 -d 1 -p cbr -e 500 -c 1 -i 37 -a 1 -x {0.0 2.0 37 ------- null}
+ -t 0.696777777777778 -s 1 -d 2 -p cbr -e 500 -c 1 -i 37 -a 1 -x {0.0 2.0 37 ------- null}
- -t 0.696777777777778 -s 1 -d 2 -p cbr -e 500 -c 1 -i 37 -a 1 -x {0.0 2.0 37 ------- null}
h -t 0.696777777777778 -s 1 -d 2 -p cbr -e 500 -c 1 -i 37 -a 1 -x {0.0 2.0 -1 ------- null}
r -t 0.698555555555556 -s 1 -d 2 -p cbr -e 500 -c 1 -i 33 -a 1 -x {0.0 2.0 33 ------- null}
+ -t 0.7 -s 0 -d 1 -p cbr -e 500 -c 1 -i 40 -a 1 -x {0.0 2.0 40 ------- null}
- -t 0.7 -s 0 -d 1 -p cbr -e 500 -c 1 -i 40 -a 1 -x {0.0 2.0 40 ------- null}
h -t 0.7 -s 0 -d 1 -p cbr -e 500 -c 1 -i 40 -a 1 -x {0.0 2.0 -1 ------- null}
r -t 0.701777777777778 -s 0 -d 1 -p cbr -e 500 -c 1 -i 38 -a 1 -x {0.0 2.0 38 ------- null}
+ -t 0.701777777777778 -s 1 -d 2 -p cbr -e 500 -c 1 -i 38 -a 1 -x {0.0 2.0 38 ------- null}
- -t 0.701777777777778 -s 1 -d 2 -p cbr -e 500 -c 1 -i 38 -a 1 -x {0.0 2.0 38 ------- null}
h -t 0.701777777777778 -s 1 -d 2 -p cbr -e 500 -c 1 -i 38 -a 1 -x {0.0 2.0 -1 ------- null}
r -t 0.703555555555556 -s 1 -d 2 -p cbr -e 500 -c 1 -i 34 -a 1 -x {0.0 2.0 34 ------- null}
+ -t 0.705 -s 0 -d 1 -p cbr -e 500 -c 1 -i 41 -a 1 -x {0.0 2.0 41 ------- null}
- -t 0.705 -s 0 -d 1 -p cbr -e 500 -c 1 -i 41 -a 1 -x {0.0 2.0 41 ------- null}
h -t 0.705 -s 0 -d 1 -p cbr -e 500 -c 1 -i 41 -a 1 -x {0.0 2.0 -1 ------- null}
r -t 0.706777777777778 -s 0 -d 1 -p cbr -e 500 -c 1 -i 39 -a 1 -x {0.0 2.0 39 ------- null}
+ -t 0.706777777777778 -s 1 -d 2 -p cbr -e 500 -c 1 -i 39 -a 1 -x {0.0 2.0 39 ------- null}
- -t 0.706777777777778 -s 1 -d 2 -p cbr -e 500 -c 1 -i 39 -a 1 -x {0.0 2.0 39 ------- null}
h -t 0.706777777777778 -s 1 -d 2 -p cbr -e 500 -c 1 -i 39 -a 1 -x {0.0 2.0 -1 ------- null}
r -t 0.708555555555556 -s 1 -d 2 -p cbr -e 500 -c 1 -i 35 -a 1 -x {0.0 2.0 35 ------- null}
+ -t 0.71 -s 0 -d 1 -p cbr -e 500 -c 1 -i 42 -a 1 -x {0.0 2.0 42 ------- null}
- -t 0.71 -s 0 -d 1 -p cbr -e 500 -c 1 -i 42 -a 1 -x {0.0 2.0 42 ------- null}
h -t 0.71 -s 0 -d 1 -p cbr -e 500 -c 1 -i 42 -a 1 -x {0.0 2.0 -1 ------- null}
r -t 0.711777777777778 -s 0 -d 1 -p cbr -e 500 -c 1 -i 40 -a 1 -x {0.0 2.0 40 ------- null}
+ -t 0.711777777777778 -s 1 -d 2 -p cbr -e 500 -c 1 -i 40 -a 1 -x {0.0 2.0 40 ------- null}
- -t 0.711777777777778 -s 1 -d 2 -p cbr -e 500 -c 1 -i 40 -a 1 -x {0.0 2.0 40 ------- null}
h -t 0.711777777777778 -s 1 -d 2 -p cbr -e 500 -c 1 -i 40 -a 1 -x {0.0 2.0 -1 ------- null}
r -t 0.713555555555556 -s 1 -d 2 -p cbr -e 500 -c 1 -i 36 -a 1 -x {0.0 2.0 36 ------- null}
+ -t 0.715 -s 0 -d 1 -p cbr -e 500 -c 1 -i 43 -a 1 -x {0.0 2.0 43 ------- null}
- -t 0.715 -s 0 -d 1 -p cbr -e 500 -c 1 -i 43 -a 1 -x {0.0 2.0 43 ------- null}
h -t 0.715 -s 0 -d 1 -p cbr -e 500 -c 1 -i 43 -a 1 -x {0.0 2.0 -1 ------- null}
r -t 0.716777777777778 -s 0 -d 1 -p cbr -e 500 -c 1 -i 41 -a 1 -x {0.0 2.0 41 ------- null}
+ -t 0.716777777777778 -s 1 -d 2 -p cbr -e 500 -c 1 -i 41 -a 1 -x {0.0 2.0 41 ------- null}