+ 0.5 0 1 cbr 500 ------- 1 0.0 2.0 0 0
- 0.5 0 1 cbr 500 ------- 1 0.0 2.0 0 0
+ 0.505 0 1 cbr 500 ------- 1 0.0 2.0 1 1
- 0.505 0 1 cbr 500 ------- 1 0.0 2.0 1 1
+ 0.51 0 1 cbr 500 ------- 1 0.0 2.0 2 2
- 0.51 0 1 cbr 500 ------- 1 0.0 2.0 2 2
r 0.511778 0 1 cbr 500 ------- 1 0.0 2.0 0 0
+ 0.511778 1 2 cbr 500 ------- 1 0.0 2.0 0 0
- 0.511778 1 2 cbr 500 ------- 1 0.0 2.0 0 0
+ 0.515 0 1 cbr 500 ------- 1 0.0 2.0 3 3
- 0.515 0 1 cbr 500 ------- 1 0.0 2.0 3 3
r 0.516778 0 1 cbr 500 ------- 1 0.0 2.0 1 1
+ 0.516778 1 2 cbr 500 ------- 1 0.0 2.0 1 1
- 0.516778 1 2 cbr 500 ------- 1 0.0 2.0 1 1
+ 0.52 0 1 cbr 500 ------- 1 0.0 2.0 4 4
- 0.52 0 1 cbr 500 ------- 1 0.0 2.0 4 4
r 0.521778 0 1 cbr 500 ------- 1 0.0 2.0 2 2
+ 0.521778 1 2 cbr 500 ------- 1 0.0 2.0 2 2
- 0.521778 1 2 cbr 500 ------- 1 0.0 2.0 2 2
+ 0.525 0 1 cbr 500 ------- 1 0.0 2.0 5 5
- 0.525 0 1 cbr 500 ------- 1 0.0 2.0 5 5
r 0.526778 0 1 cbr 500 ------- 1 0.0 2.0 3 3
+ 0.526778 1 2 cbr 500 ------- 1 0.0 2.0 3 3
- 0.526778 1 2 cbr 500 ------- 1 0.0 2.0 3 3
+ 0.53 0 1 cbr 500 ------- 1 0.0 2.0 6 6
- 0.53 0 1 cbr 500 ------- 1 0.0 2.0 6 6
r 0.531778 0 1 cbr 500 ------- 1 0.0 2.0 4 4
+ 0.531778 1 2 cbr 500 ------- 1 0.0 2.0 4 4
- 0.531778 1 2 cbr 500 ------- 1 0.0 2.0 4 4
r 0.533556 1 2 cbr 500 ------- 1 0.0 2.0 0 0
+ 0.535 0 1 cbr 500 ------- 1 0.0 2.0 7 7
- 0.535 0 1 cbr 500 ------- 1 0.0 2.0 7 7
r 0.536778 0 1 cbr 500 ------- 1 0.0 2.0 5 5
+ 0.536778 1 2 cbr 500 ------- 1 0.0 2.0 5 5
- 0.536778 1 2 cbr 500 ------- 1 0.0 2.0 5 5
r 0.538556 1 2 cbr 500 ------- 1 0.0 2.0 1 1
+ 0.54 0 1 cbr 500 ------- 1 0.0 2.0 8 8
- 0.54 0 1 cbr 500 ------- 1 0.0 2.0 8 8
r 0.541778 0 1 cbr 500 ------- 1 0.0 2.0 6 6
+ 0.541778 1 2 cbr 500 ------- 1 0.0 2.0 6 6
- 0.541778 1 2 cbr 500 ------- 1 0.0 2.0 6 6
r 0.543556 1 2 cbr 500 ------- 1 0.0 2.0 2 2
+ 0.545 0 1 cbr 500 ------- 1 0.0 2.0 9 9
- 0.545 0 1 cbr 500 ------- 1 0.0 2.0 9 9
r 0.546778 0 1 cbr 500 ------- 1 0.0 2.0 7 7
+ 0.546778 1 2 cbr 500 ------- 1 0.0 2.0 7 7
- 0.546778 1 2 cbr 500 ------- 1 0.0 2.0 7 7
r 0.548556 1 2 cbr 500 ------- 1 0.0 2.0 3 3
+ 0.55 0 1 cbr 500 ------- 1 0.0 2.0 10 10
- 0.55 0 1 cbr 500 ------- 1 0.0 2.0 10 10
r 0.551778 0 1 cbr 500 ------- 1 0.0 2.0 8 8
+ 0.551778 1 2 cbr 500 ------- 1 0.0 2.0 8 8
- 0.551778 1 2 cbr 500 ------- 1 0.0 2.0 8 8
r 0.553556 1 2 cbr 500 ------- 1 0.0 2.0 4 4
+ 0.555 0 1 cbr 500 ------- 1 0.0 2.0 11 11
- 0.555 0 1 cbr 500 ------- 1 0.0 2.0 11 11
r 0.556778 0 1 cbr 500 ------- 1 0.0 2.0 9 9
+ 0.556778 1 2 cbr 500 ------- 1 0.0 2.0 9 9
- 0.556778 1 2 cbr 500 ------- 1 0.0 2.0 9 9
r 0.558556 1 2 cbr 500 ------- 1 0.0 2.0 5 5
+ 0.56 0 1 cbr 500 ------- 1 0.0 2.0 12 12
- 0.56 0 1 cbr 500 ------- 1 0.0 2.0 12 12
r 0.561778 0 1 cbr 500 ------- 1 0.0 2.0 10 10
+ 0.561778 1 2 cbr 500 ------- 1 0.0 2.0 10 10
- 0.561778 1 2 cbr 500 ------- 1 0.0 2.0 10 10
r 0.563556 1 2 cbr 500 ------- 1 0.0 2.0 6 6
+ 0.565 0 1 cbr 500 ------- 1 0.0 2.0 13 13
- 0.565 0 1 cbr 500 ------- 1 0.0 2.0 13 13
r 0.566778 0 1 cbr 500 ------- 1 0.0 2.0 11 11
+ 0.566778 1 2 cbr 500 ------- 1 0.0 2.0 11 11
- 0.566778 1 2 cbr 500 ------- 1 0.0 2.0 11 11
r 0.568556 1 2 cbr 500 ------- 1 0.0 2.0 7 7
+ 0.57 0 1 cbr 500 ------- 1 0.0 2.0 14 14
- 0.57 0 1 cbr 500 ------- 1 0.0 2.0 14 14
r 0.571778 0 1 cbr 500 ------- 1 0.0 2.0 12 12
+ 0.571778 1 2 cbr 500 ------- 1 0.0 2.0 12 12
- 0.571778 1 2 cbr 500 ------- 1 0.0 2.0 12 12
r 0.573556 1 2 cbr 500 ------- 1 0.0 2.0 8 8
+ 0.575 0 1 cbr 500 ------- 1 0.0 2.0 15 15
- 0.575 0 1 cbr 500 ------- 1 0.0 2.0 15 15
r 0.576778 0 1 cbr 500 ------- 1 0.0 2.0 13 13
+ 0.576778 1 2 cbr 500 ------- 1 0.0 2.0 13 13
- 0.576778 1 2 cbr 500 ------- 1 0.0 2.0 13 13
r 0.578556 1 2 cbr 500 ------- 1 0.0 2.0 9 9
+ 0.58 0 1 cbr 500 ------- 1 0.0 2.0 16 16
- 0.58 0 1 cbr 500 ------- 1 0.0 2.0 16 16
r 0.581778 0 1 cbr 500 ------- 1 0.0 2.0 14 14
+ 0.581778 1 2 cbr 500 ------- 1 0.0 2.0 14 14
- 0.581778 1 2 cbr 500 ------- 1 0.0 2.0 14 14
r 0.583556 1 2 cbr 500 ------- 1 0.0 2.0 10 10
+ 0.585 0 1 cbr 500 ------- 1 0.0 2.0 17 17
- 0.585 0 1 cbr 500 ------- 1 0.0 2.0 17 17
r 0.586778 0 1 cbr 500 ------- 1 0.0 2.0 15 15
+ 0.586778 1 2 cbr 500 ------- 1 0.0 2.0 15 15
- 0.586778 1 2 cbr 500 ------- 1 0.0 2.0 15 15
r 0.588556 1 2 cbr 500 ------- 1 0.0 2.0 11 11
+ 0.59 0 1 cbr 500 ------- 1 0.0 2.0 18 18
- 0.59 0 1 cbr 500 ------- 1 0.0 2.0 18 18
r 0.591778 0 1 cbr 500 ------- 1 0.0 2.0 16 16
+ 0.591778 1 2 cbr 500 ------- 1 0.0 2.0 16 16
- 0.591778 1 2 cbr 500 ------- 1 0.0 2.0 16 16
r 0.593556 1 2 cbr 500 ------- 1 0.0 2.0 12 12
+ 0.595 0 1 cbr 500 ------- 1 0.0 2.0 19 19
- 0.595 0 1 cbr 500 ------- 1 0.0 2.0 19 19
r 0.596778 0 1 cbr 500 ------- 1 0.0 2.0 17 17
+ 0.596778 1 2 cbr 500 ------- 1 0.0 2.0 17 17
- 0.596778 1 2 cbr 500 ------- 1 0.0 2.0 17 17
r 0.598556 1 2 cbr 500 ------- 1 0.0 2.0 13 13
+ 0.6 0 1 cbr 500 ------- 1 0.0 2.0 20 20
- 0.6 0 1 cbr 500 ------- 1 0.0 2.0 20 20
r 0.601778 0 1 cbr 500 ------- 1 0.0 2.0 18 18
+ 0.601778 1 2 cbr 500 ------- 1 0.0 2.0 18 18
- 0.601778 1 2 cbr 500 ------- 1 0.0 2.0 18 18
r 0.603556 1 2 cbr 500 ------- 1 0.0 2.0 14 14
+ 0.605 0 1 cbr 500 ------- 1 0.0 2.0 21 21
- 0.605 0 1 cbr 500 ------- 1 0.0 2.0 21 21
r 0.606778 0 1 cbr 500 ------- 1 0.0 2.0 19 19
+ 0.606778 1 2 cbr 500 ------- 1 0.0 2.0 19 19
- 0.606778 1 2 cbr 500 ------- 1 0.0 2.0 19 19
r 0.608556 1 2 cbr 500 ------- 1 0.0 2.0 15 15
+ 0.61 0 1 cbr 500 ------- 1 0.0 2.0 22 22
- 0.61 0 1 cbr 500 ------- 1 0.0 2.0 22 22
r 0.611778 0 1 cbr 500 ------- 1 0.0 2.0 20 20
+ 0.611778 1 2 cbr 500 ------- 1 0.0 2.0 20 20
- 0.611778 1 2 cbr 500 ------- 1 0.0 2.0 20 20
r 0.613556 1 2 cbr 500 ------- 1 0.0 2.0 16 16
+ 0.615 0 1 cbr 500 ------- 1 0.0 2.0 23 23
- 0.615 0 1 cbr 500 ------- 1 0.0 2.0 23 23
r 0.616778 0 1 cbr 500 ------- 1 0.0 2.0 21 21
+ 0.616778 1 2 cbr 500 ------- 1 0.0 2.0 21 21
- 0.616778 1 2 cbr 500 ------- 1 0.0 2.0 21 21
r 0.618556 1 2 cbr 500 ------- 1 0.0 2.0 17 17
+ 0.62 0 1 cbr 500 ------- 1 0.0 2.0 24 24
- 0.62 0 1 cbr 500 ------- 1 0.0 2.0 24 24
r 0.621778 0 1 cbr 500 ------- 1 0.0 2.0 22 22
+ 0.621778 1 2 cbr 500 ------- 1 0.0 2.0 22 22
- 0.621778 1 2 cbr 500 ------- 1 0.0 2.0 22 22
r 0.623556 1 2 cbr 500 ------- 1 0.0 2.0 18 18
+ 0.625 0 1 cbr 500 ------- 1 0.0 2.0 25 25
- 0.625 0 1 cbr 500 ------- 1 0.0 2.0 25 25
r 0.626778 0 1 cbr 500 ------- 1 0.0 2.0 23 23
+ 0.626778 1 2 cbr 500 ------- 1 0.0 2.0 23 23
- 0.626778 1 2 cbr 500 ------- 1 0.0 2.0 23 23
r 0.628556 1 2 cbr 500 ------- 1 0.0 2.0 19 19
+ 0.63 0 1 cbr 500 ------- 1 0.0 2.0 26 26
- 0.63 0 1 cbr 500 ------- 1 0.0 2.0 26 26
r 0.631778 0 1 cbr 500 ------- 1 0.0 2.0 24 24
+ 0.631778 1 2 cbr 500 ------- 1 0.0 2.0 24 24
- 0.631778 1 2 cbr 500 ------- 1 0.0 2.0 24 24
r 0.633556 1 2 cbr 500 ------- 1 0.0 2.0 20 20
+ 0.635 0 1 cbr 500 ------- 1 0.0 2.0 27 27
- 0.635 0 1 cbr 500 ------- 1 0.0 2.0 27 27
r 0.636778 0 1 cbr 500 ------- 1 0.0 2.0 25 25
+ 0.636778 1 2 cbr 500 ------- 1 0.0 2.0 25 25
- 0.636778 1 2 cbr 500 ------- 1 0.0 2.0 25 25
r 0.638556 1 2 cbr 500 ------- 1 0.0 2.0 21 21
+ 0.64 0 1 cbr 500 ------- 1 0.0 2.0 28 28
- 0.64 0 1 cbr 500 ------- 1 0.0 2.0 28 28
r 0.641778 0 1 cbr 500 ------- 1 0.0 2.0 26 26
+ 0.641778 1 2 cbr 500 ------- 1 0.0 2.0 26 26
- 0.641778 1 2 cbr 500 ------- 1 0.0 2.0 26 26
r 0.643556 1 2 cbr 500 ------- 1 0.0 2.0 22 22
+ 0.645 0 1 cbr 500 ------- 1 0.0 2.0 29 29
- 0.645 0 1 cbr 500 ------- 1 0.0 2.0 29 29
r 0.646778 0 1 cbr 500 ------- 1 0.0 2.0 27 27
+ 0.646778 1 2 cbr 500 ------- 1 0.0 2.0 27 27
- 0.646778 1 2 cbr 500 ------- 1 0.0 2.0 27 27
r 0.648556 1 2 cbr 500 ------- 1 0.0 2.0 23 23
+ 0.65 0 1 cbr 500 ------- 1 0.0 2.0 30 30
- 0.65 0 1 cbr 500 ------- 1 0.0 2.0 30 30
r 0.651778 0 1 cbr 500 ------- 1 0.0 2.0 28 28
+ 0.651778 1 2 cbr 500 ------- 1 0.0 2.0 28 28
- 0.651778 1 2 cbr 500 ------- 1 0.0 2.0 28 28
r 0.653556 1 2 cbr 500 ------- 1 0.0 2.0 24 24
+ 0.655 0 1 cbr 500 ------- 1 0.0 2.0 31 31
- 0.655 0 1 cbr 500 ------- 1 0.0 2.0 31 31
r 0.656778 0 1 cbr 500 ------- 1 0.0 2.0 29 29
+ 0.656778 1 2 cbr 500 ------- 1 0.0 2.0 29 29
- 0.656778 1 2 cbr 500 ------- 1 0.0 2.0 29 29
r 0.658556 1 2 cbr 500 ------- 1 0.0 2.0 25 25
+ 0.66 0 1 cbr 500 ------- 1 0.0 2.0 32 32
- 0.66 0 1 cbr 500 ------- 1 0.0 2.0 32 32
r 0.661778 0 1 cbr 500 ------- 1 0.0 2.0 30 30
+ 0.661778 1 2 cbr 500 ------- 1 0.0 2.0 30 30
- 0.661778 1 2 cbr 500 ------- 1 0.0 2.0 30 30
r 0.663556 1 2 cbr 500 ------- 1 0.0 2.0 26 26
+ 0.665 0 1 cbr 500 ------- 1 0.0 2.0 33 33
- 0.665 0 1 cbr 500 ------- 1 0.0 2.0 33 33
r 0.666778 0 1 cbr 500 ------- 1 0.0 2.0 31 31
+ 0.666778 1 2 cbr 500 ------- 1 0.0 2.0 31 31
- 0.666778 1 2 cbr 500 ------- 1 0.0 2.0 31 31
r 0.668556 1 2 cbr 500 ------- 1 0.0 2.0 27 27
+ 0.67 0 1 cbr 500 ------- 1 0.0 2.0 34 34
- 0.67 0 1 cbr 500 ------- 1 0.0 2.0 34 34
r 0.671778 0 1 cbr 500 ------- 1 0.0 2.0 32 32
+ 0.671778 1 2 cbr 500 ------- 1 0.0 2.0 32 32
- 0.671778 1 2 cbr 500 ------- 1 0.0 2.0 32 32
r 0.673556 1 2 cbr 500 ------- 1 0.0 2.0 28 28
+ 0.675 0 1 cbr 500 ------- 1 0.0 2.0 35 35
- 0.675 0 1 cbr 500 ------- 1 0.0 2.0 35 35
r 0.676778 0 1 cbr 500 ------- 1 0.0 2.0 33 33
+ 0.676778 1 2 cbr 500 ------- 1 0.0 2.0 33 33
- 0.676778 1 2 cbr 500 ------- 1 0.0 2.0 33 33
r 0.678556 1 2 cbr 500 ------- 1 0.0 2.0 29 29
+ 0.68 0 1 cbr 500 ------- 1 0.0 2.0 36 36
- 0.68 0 1 cbr 500 ------- 1 0.0 2.0 36 36
r 0.681778 0 1 cbr 500 ------- 1 0.0 2.0 34 34
+ 0.681778 1 2 cbr 500 ------- 1 0.0 2.0 34 34
- 0.681778 1 2 cbr 500 ------- 1 0.0 2.0 34 34
r 0.683556 1 2 cbr 500 ------- 1 0.0 2.0 30 30
+ 0.685 0 1 cbr 500 ------- 1 0.0 2.0 37 37
- 0.685 0 1 cbr 500 ------- 1 0.0 2.0 37 37
r 0.686778 0 1 cbr 500 ------- 1 0.0 2.0 35 35
+ 0.686778 1 2 cbr 500 ------- 1 0.0 2.0 35 35
- 0.686778 1 2 cbr 500 ------- 1 0.0 2.0 35 35
r 0.688556 1 2 cbr 500 ------- 1 0.0 2.0 31 31
+ 0.69 0 1 cbr 500 ------- 1 0.0 2.0 38 38
- 0.69 0 1 cbr 500 ------- 1 0.0 2.0 38 38
r 0.691778 0 1 cbr 500 ------- 1 0.0 2.0 36 36
+ 0.691778 1 2 cbr 500 ------- 1 0.0 2.0 36 36
- 0.691778 1 2 cbr 500 ------- 1 0.0 2.0 36 36
r 0.693556 1 2 cbr 500 ------- 1 0.0 2.0 32 32
+ 0.695 0 1 cbr 500 ------- 1 0.0 2.0 39 39
- 0.695 0 1 cbr 500 ------- 1 0.0 2.0 39 39
r 0.696778 0 1 cbr 500 ------- 1 0.0 2.0 37 37
+ 0.696778 1 2 cbr 500 ------- 1 0.0 2.0 37 37
- 0.696778 1 2 cbr 500 ------- 1 0.0 2.0 37 37
r 0.698556 1 2 cbr 500 ------- 1 0.0 2.0 33 33
+ 0.7 0 1 cbr 500 ------- 1 0.0 2.0 40 40
- 0.7 0 1 cbr 500 ------- 1 0.0 2.0 40 40
r 0.701778 0 1 cbr 500 ------- 1 0.0 2.0 38 38
+ 0.701778 1 2 cbr 500 ------- 1 0.0 2.0 38 38
- 0.701778 1 2 cbr 500 ------- 1 0.0 2.0 38 38
r 0.703556 1 2 cbr 500 ------- 1 0.0 2.0 34 34
+ 0.705 0 1 cbr 500 ------- 1 0.0 2.0 41 41
- 0.705 0 1 cbr 500 ------- 1 0.0 2.0 41 41
r 0.706778 0 1 cbr 500 ------- 1 0.0 2.0 39 39
+ 0.706778 1 2 cbr 500 ------- 1 0.0 2.0 39 39
- 0.706778 1 2 cbr 500 ------- 1 0.0 2.0 39 39
r 0.708556 1 2 cbr 500 ------- 1 0.0 2.0 35 35
+ 0.71 0 1 cbr 500 ------- 1 0.0 2.0 42 42
- 0.71 0 1 cbr 500 ------- 1 0.0 2.0 42 42
r 0.711778 0 1 cbr 500 ------- 1 0.0 2.0 40 40
+ 0.711778 1 2 cbr 500 ------- 1 0.0 2.0 40 40
- 0.711778 1 2 cbr 500 ------- 1 0.0 2.0 40 40
r 0.713556 1 2 cbr 500 ------- 1 0.0 2.0 36 36
+ 0.715 0 1 cbr 500 ------- 1 0.0 2.0 43 43
- 0.715 0 1 cbr 500 ------- 1 0.0 2.0 43 43
r 0.716778 0 1 cbr 500 ------- 1 0.0 2.0 41 41
+ 0.716778 1 2 cbr 500 ------- 1 0.0 2.0 41 41
- 0.716778 1 2 cbr 500 ------- 1 0.0 2.0 41 41
r 0.718556 1 2 cbr 500 ------- 1 0.0 2.0 37 37
+ 0.72 0 1 cbr 500 ------- 1 0.0 2.0 44 44
- 0.72 0 1 cbr 500 ------- 1 0.0 2.0 44 44
r 0.721778 0 1 cbr 500 ------- 1 0.0 2.0 42 42
+ 0.721778 1 2 cbr 500 ------- 1 0.0 2.0 42 42
- 0.721778 1 2 cbr 500 ------- 1 0.0 2.0 42 42
r 0.723556 1 2 cbr 500 ------- 1 0.0 2.0 38 38
+ 0.725 0 1 cbr 500 ------- 1 0.0 2.0 45 45
- 0.725 0 1 cbr 500 ------- 1 0.0 2.0 45 45
r 0.726778 0 1 cbr 500 ------- 1 0.0 2.0 43 43
+ 0.726778 1 2 cbr 500 ------- 1 0.0 2.0 43 43
- 0.726778 1 2 cbr 500 ------- 1 0.0 2.0 43 43
r 0.728556 1 2 cbr 500 ------- 1 0.0 2.0 39 39
+ 0.73 0 1 cbr 500 ------- 1 0.0 2.0 46 46
- 0.73 0 1 cbr 500 ------- 1 0.0 2.0 46 46
r 0.731778 0 1 cbr 500 ------- 1 0.0 2.0 44 44
+ 0.731778 1 2 cbr 500 ------- 1 0.0 2.0 44 44
- 0.731778 1 2 cbr 500 ------- 1 0.0 2.0 44 44
r 0.733556 1 2 cbr 500 ------- 1 0.0 2.0 40 40
+ 0.735 0 1 cbr 500 ------- 1 0.0 2.0 47 47
- 0.735 0 1 cbr 500 ------- 1 0.0 2.0 47 47
r 0.736778 0 1 cbr 500 ------- 1 0.0 2.0 45 45
+ 0.736778 1 2 cbr 500 ------- 1 0.0 2.0 45 45
- 0.736778 1 2 cbr 500 ------- 1 0.0 2.0 45 45
r 0.738556 1 2 cbr 500 ------- 1 0.0 2.0 41 41
+ 0.74 0 1 cbr 500 ------- 1 0.0 2.0 48 48
- 0.74 0 1 cbr 500 ------- 1 0.0 2.0 48 48
r 0.741778 0 1 cbr 500 ------- 1 0.0 2.0 46 46
+ 0.741778 1 2 cbr 500 ------- 1 0.0 2.0 46 46
- 0.741778 1 2 cbr 500 ------- 1 0.0 2.0 46 46
r 0.743556 1 2 cbr 500 ------- 1 0.0 2.0 42 42
+ 0.745 0 1 cbr 500 ------- 1 0.0 2.0 49 49
- 0.745 0 1 cbr 500 ------- 1 0.0 2.0 49 49
r 0.746778 0 1 cbr 500 ------- 1 0.0 2.0 47 47
+ 0.746778 1 2 cbr 500 ------- 1 0.0 2.0 47 47
- 0.746778 1 2 cbr 500 ------- 1 0.0 2.0 47 47
r 0.748556 1 2 cbr 500 ------- 1 0.0 2.0 43 43
+ 0.75 0 1 cbr 500 ------- 1 0.0 2.0 50 50
- 0.75 0 1 cbr 500 ------- 1 0.0 2.0 50 50
r 0.751778 0 1 cbr 500 ------- 1 0.0 2.0 48 48
+ 0.751778 1 2 cbr 500 ------- 1 0.0 2.0 48 48
- 0.751778 1 2 cbr 500 ------- 1 0.0 2.0 48 48
r 0.753556 1 2 cbr 500 ------- 1 0.0 2.0 44 44
+ 0.755 0 1 cbr 500 ------- 1 0.0 2.0 51 51
- 0.755 0 1 cbr 500 ------- 1 0.0 2.0 51 51
r 0.756778 0 1 cbr 500 ------- 1 0.0 2.0 49 49
+ 0.756778 1 2 cbr 500 ------- 1 0.0 2.0 49 49
- 0.756778 1 2 cbr 500 ------- 1 0.0 2.0 49 49
r 0.758556 1 2 cbr 500 ------- 1 0.0 2.0 45 45
+ 0.76 0 1 cbr 500 ------- 1 0.0 2.0 52 52
- 0.76 0 1 cbr 500 ------- 1 0.0 2.0 52 52
r 0.761778 0 1 cbr 500 ------- 1 0.0 2.0 50 50
+ 0.761778 1 2 cbr 500 ------- 1 0.0 2.0 50 50
- 0.761778 1 2 cbr 500 ------- 1 0.0 2.0 50 50
r 0.763556 1 2 cbr 500 ------- 1 0.0 2.0 46 46
+ 0.765 0 1 cbr 500 ------- 1 0.0 2.0 53 53
- 0.765 0 1 cbr 500 ------- 1 0.0 2.0 53 53
r 0.766778 0 1 cbr 500 ------- 1 0.0 2.0 51 51
+ 0.766778 1 2 cbr 500 ------- 1 0.0 2.0 51 51
- 0.766778 1 2 cbr 500 ------- 1 0.0 2.0 51 51
r 0.768556 1 2 cbr 500 ------- 1 0.0 2.0 47 47
+ 0.77 0 1 cbr 500 ------- 1 0.0 2.0 54 54
- 0.77 0 1 cbr 500 ------- 1 0.0 2.0 54 54
r 0.771778 0 1 cbr 500 ------- 1 0.0 2.0 52 52
+ 0.771778 1 2 cbr 500 ------- 1 0.0 2.0 52 52
- 0.771778 1 2 cbr 500 ------- 1 0.0 2.0 52 52
r 0.773556 1 2 cbr 500 ------- 1 0.0 2.0 48 48
+ 0.775 0 1 cbr 500 ------- 1 0.0 2.0 55 55
- 0.775 0 1 cbr 500 ------- 1 0.0 2.0 55 55
r 0.776778 0 1 cbr 500 ------- 1 0.0 2.0 53 53
+ 0.776778 1 2 cbr 500 ------- 1 0.0 2.0 53 53
- 0.776778 1 2 cbr 500 ------- 1 0.0 2.0 53 53
r 0.778556 1 2 cbr 500 ------- 1 0.0 2.0 49 49
+ 0.78 0 1 cbr 500 ------- 1 0.0 2.0 56 56
- 0.78 0 1 cbr 500 ------- 1 0.0 2.0 56 56
r 0.781778 0 1 cbr 500 ------- 1 0.0 2.0 54 54
+ 0.781778 1 2 cbr 500 ------- 1 0.0 2.0 54 54
- 0.781778 1 2 cbr 500 ------- 1 0.0 2.0 54 54
r 0.783556 1 2 cbr 500 ------- 1 0.0 2.0 50 50
+ 0.785 0 1 cbr 500 ------- 1 0.0 2.0 57 57
- 0.785 0 1 cbr 500 ------- 1 0.0 2.0 57 57
r 0.786778 0 1 cbr 500 ------- 1 0.0 2.0 55 55
+ 0.786778 1 2 cbr 500 ------- 1 0.0 2.0 55 55
- 0.786778 1 2 cbr 500 ------- 1 0.0 2.0 55 55
r 0.788556 1 2 cbr 500 ------- 1 0.0 2.0 51 51
+ 0.79 0 1 cbr 500 ------- 1 0.0 2.0 58 58
- 0.79 0 1 cbr 500 ------- 1 0.0 2.0 58 58
r 0.791778 0 1 cbr 500 ------- 1 0.0 2.0 56 56
+ 0.791778 1 2 cbr 500 ------- 1 0.0 2.0 56 56
- 0.791778 1 2 cbr 500 ------- 1 0.0 2.0 56 56
r 0.793556 1 2 cbr 500 ------- 1 0.0 2.0 52 52
+ 0.795 0 1 cbr 500 ------- 1 0.0 2.0 59 59
- 0.795 0 1 cbr 500 ------- 1 0.0 2.0 59 59
r 0.796778 0 1 cbr 500 ------- 1 0.0 2.0 57 57
+ 0.796778 1 2 cbr 500 ------- 1 0.0 2.0 57 57
- 0.796778 1 2 cbr 500 ------- 1 0.0 2.0 57 57
r 0.798556 1 2 cbr 500 ------- 1 0.0 2.0 53 53
+ 0.8 0 1 cbr 500 ------- 1 0.0 2.0 60 60
- 0.8 0 1 cbr 500 ------- 1 0.0 2.0 60 60
r 0.801778 0 1 cbr 500 ------- 1 0.0 2.0 58 58
+ 0.801778 1 2 cbr 500 ------- 1 0.0 2.0 58 58
- 0.801778 1 2 cbr 500 ------- 1 0.0 2.0 58 58
r 0.803556 1 2 cbr 500 ------- 1 0.0 2.0 54 54
+ 0.805 0 1 cbr 500 ------- 1 0.0 2.0 61 61
- 0.805 0 1 cbr 500 ------- 1 0.0 2.0 61 61
r 0.806778 0 1 cbr 500 ------- 1 0.0 2.0 59 59
+ 0.806778 1 2 cbr 500 ------- 1 0.0 2.0 59 59
- 0.806778 1 2 cbr 500 ------- 1 0.0 2.0 59 59
r 0.808556 1 2 cbr 500 ------- 1 0.0 2.0 55 55
+ 0.81 0 1 cbr 500 ------- 1 0.0 2.0 62 62
- 0.81 0 1 cbr 500 ------- 1 0.0 2.0 62 62
r 0.811778 0 1 cbr 500 ------- 1 0.0 2.0 60 60
+ 0.811778 1 2 cbr 500 ------- 1 0.0 2.0 60 60
- 0.811778 1 2 cbr 500 ------- 1 0.0 2.0 60 60
r 0.813556 1 2 cbr 500 ------- 1 0.0 2.0 56 56
+ 0.815 0 1 cbr 500 ------- 1 0.0 2.0 63 63
- 0.815 0 1 cbr 500 ------- 1 0.0 2.0 63 63
r 0.816778 0 1 cbr 500 ------- 1 0.0 2.0 61 61
+ 0.816778 1 2 cbr 500 ------- 1 0.0 2.0 61 61
- 0.816778 1 2 cbr 500 ------- 1 0.0 2.0 61 61
r 0.818556 1 2 cbr 500 ------- 1 0.0 2.0 57 57
+ 0.82 0 1 cbr 500 ------- 1 0.0 2.0 64 64
- 0.82 0 1 cbr 500 ------- 1 0.0 2.0 64 64
r 0.821778 0 1 cbr 500 ------- 1 0.0 2.0 62 62
+ 0.821778 1 2 cbr 500 ------- 1 0.0 2.0 62 62
- 0.821778 1 2 cbr 500 ------- 1 0.0 2.0 62 62
r 0.823556 1 2 cbr 500 ------- 1 0.0 2.0 58 58
+ 0.825 0 1 cbr 500 ------- 1 0.0 2.0 65 65
- 0.825 0 1 cbr 500 ------- 1 0.0 2.0 65 65
r 0.826778 0 1 cbr 500 ------- 1 0.0 2.0 63 63
+ 0.826778 1 2 cbr 500 ------- 1 0.0 2.0 63 63
- 0.826778 1 2 cbr 500 ------- 1 0.0 2.0 63 63
r 0.828556 1 2 cbr 500 ------- 1 0.0 2.0 59 59
+ 0.83 0 1 cbr 500 ------- 1 0.0 2.0 66 66
- 0.83 0 1 cbr 500 ------- 1 0.0 2.0 66 66
r 0.831778 0 1 cbr 500 ------- 1 0.0 2.0 64 64
+ 0.831778 1 2 cbr 500 ------- 1 0.0 2.0 64 64
- 0.831778 1 2 cbr 500 ------- 1 0.0 2.0 64 64
r 0.833556 1 2 cbr 500 ------- 1 0.0 2.0 60 60
+ 0.835 0 1 cbr 500 ------- 1 0.0 2.0 67 67
- 0.835 0 1 cbr 500 ------- 1 0.0 2.0 67 67
r 0.836778 0 1 cbr 500 ------- 1 0.0 2.0 65 65
+ 0.836778 1 2 cbr 500 ------- 1 0.0 2.0 65 65
- 0.836778 1 2 cbr 500 ------- 1 0.0 2.0 65 65
r 0.838556 1 2 cbr 500 ------- 1 0.0 2.0 61 61
+ 0.84 0 1 cbr 500 ------- 1 0.0 2.0 68 68
- 0.84 0 1 cbr 500 ------- 1 0.0 2.0 68 68
r 0.841778 0 1 cbr 500 ------- 1 0.0 2.0 66 66
+ 0.841778 1 2 cbr 500 ------- 1 0.0 2.0 66 66
- 0.841778 1 2 cbr 500 ------- 1 0.0 2.0 66 66
r 0.843556 1 2 cbr 500 ------- 1 0.0 2.0 62 62
+ 0.845 0 1 cbr 500 ------- 1 0.0 2.0 69 69
- 0.845 0 1 cbr 500 ------- 1 0.0 2.0 69 69
r 0.846778 0 1 cbr 500 ------- 1 0.0 2.0 67 67
+ 0.846778 1 2 cbr 500 ------- 1 0.0 2.0 67 67
- 0.846778 1 2 cbr 500 ------- 1 0.0 2.0 67 67
r 0.848556 1 2 cbr 500 ------- 1 0.0 2.0 63 63
+ 0.85 0 1 cbr 500 ------- 1 0.0 2.0 70 70
- 0.85 0 1 cbr 500 ------- 1 0.0 2.0 70 70
r 0.851778 0 1 cbr 500 ------- 1 0.0 2.0 68 68
+ 0.851778 1 2 cbr 500 ------- 1 0.0 2.0 68 68
- 0.851778 1 2 cbr 500 ------- 1 0.0 2.0 68 68
r 0.853556 1 2 cbr 500 ------- 1 0.0 2.0 64 64
+ 0.855 0 1 cbr 500 ------- 1 0.0 2.0 71 71
- 0.855 0 1 cbr 500 ------- 1 0.0 2.0 71 71
r 0.856778 0 1 cbr 500 ------- 1 0.0 2.0 69 69
+ 0.856778 1 2 cbr 500 ------- 1 0.0 2.0 69 69
- 0.856778 1 2 cbr 500 ------- 1 0.0 2.0 69 69
r 0.858556 1 2 cbr 500 ------- 1 0.0 2.0 65 65
+ 0.86 0 1 cbr 500 ------- 1 0.0 2.0 72 72
- 0.86 0 1 cbr 500 ------- 1 0.0 2.0 72 72
r 0.861778 0 1 cbr 500 ------- 1 0.0 2.0 70 70
+ 0.861778 1 2 cbr 500 ------- 1 0.0 2.0 70 70
- 0.861778 1 2 cbr 500 ------- 1 0.0 2.0 70 70
r 0.863556 1 2 cbr 500 ------- 1 0.0 2.0 66 66
+ 0.865 0 1 cbr 500 ------- 1 0.0 2.0 73 73
- 0.865 0 1 cbr 500 ------- 1 0.0 2.0 73 73
r 0.866778 0 1 cbr 500 ------- 1 0.0 2.0 71 71
+ 0.866778 1 2 cbr 500 ------- 1 0.0 2.0 71 71
- 0.866778 1 2 cbr 500 ------- 1 0.0 2.0 71 71
r 0.868556 1 2 cbr 500 ------- 1 0.0 2.0 67 67
+ 0.87 0 1 cbr 500 ------- 1 0.0 2.0 74 74
- 0.87 0 1 cbr 500 ------- 1 0.0 2.0 74 74
r 0.871778 0 1 cbr 500 ------- 1 0.0 2.0 72 72
+ 0.871778 1 2 cbr 500 ------- 1 0.0 2.0 72 72
- 0.871778 1 2 cbr 500 ------- 1 0.0 2.0 72 72
r 0.873556 1 2 cbr 500 ------- 1 0.0 2.0 68 68
+ 0.875 0 1 cbr 500 ------- 1 0.0 2.0 75 75
- 0.875 0 1 cbr 500 ------- 1 0.0 2.0 75 75
r 0.876778 0 1 cbr 500 ------- 1 0.0 2.0 73 73
+ 0.876778 1 2 cbr 500 ------- 1 0.0 2.0 73 73
- 0.876778 1 2 cbr 500 ------- 1 0.0 2.0 73 73
r 0.878556 1 2 cbr 500 ------- 1 0.0 2.0 69 69
+ 0.88 0 1 cbr 500 ------- 1 0.0 2.0 76 76
- 0.88 0 1 cbr 500 ------- 1 0.0 2.0 76 76
r 0.881778 0 1 cbr 500 ------- 1 0.0 2.0 74 74
+ 0.881778 1 2 cbr 500 ------- 1 0.0 2.0 74 74
- 0.881778 1 2 cbr 500 ------- 1 0.0 2.0 74 74
r 0.883556 1 2 cbr 500 ------- 1 0.0 2.0 70 70
+ 0.885 0 1 cbr 500 ------- 1 0.0 2.0 77 77
- 0.885 0 1 cbr 500 ------- 1 0.0 2.0 77 77
r 0.886778 0 1 cbr 500 ------- 1 0.0 2.0 75 75
+ 0.886778 1 2 cbr 500 ------- 1 0.0 2.0 75 75
- 0.886778 1 2 cbr 500 ------- 1 0.0 2.0 75 75
r 0.888556 1 2 cbr 500 ------- 1 0.0 2.0 71 71
+ 0.89 0 1 cbr 500 ------- 1 0.0 2.0 78 78
- 0.89 0 1 cbr 500 ------- 1 0.0 2.0 78 78
r 0.891778 0 1 cbr 500 ------- 1 0.0 2.0 76 76
+ 0.891778 1 2 cbr 500 ------- 1 0.0 2.0 76 76
- 0.891778 1 2 cbr 500 ------- 1 0.0 2.0 76 76
r 0.893556 1 2 cbr 500 ------- 1 0.0 2.0 72 72
+ 0.895 0 1 cbr 500 ------- 1 0.0 2.0 79 79
- 0.895 0 1 cbr 500 ------- 1 0.0 2.0 79 79
r 0.896778 0 1 cbr 500 ------- 1 0.0 2.0 77 77
+ 0.896778 1 2 cbr 500 ------- 1 0.0 2.0 77 77
- 0.896778 1 2 cbr 500 ------- 1 0.0 2.0 77 77
r 0.898556 1 2 cbr 500 ------- 1 0.0 2.0 73 73
+ 0.9 0 1 cbr 500 ------- 1 0.0 2.0 80 80
- 0.9 0 1 cbr 500 ------- 1 0.0 2.0 80 80
r 0.901778 0 1 cbr 500 ------- 1 0.0 2.0 78 78
+ 0.901778 1 2 cbr 500 ------- 1 0.0 2.0 78 78
- 0.901778 1 2 cbr 500 ------- 1 0.0 2.0 78 78
r 0.903556 1 2 cbr 500 ------- 1 0.0 2.0 74 74
+ 0.905 0 1 cbr 500 ------- 1 0.0 2.0 81 81
- 0.905 0 1 cbr 500 ------- 1 0.0 2.0 81 81
r 0.906778 0 1 cbr 500 ------- 1 0.0 2.0 79 79
+ 0.906778 1 2 cbr 500 ------- 1 0.0 2.0 79 79
- 0.906778 1 2 cbr 500 ------- 1 0.0 2.0 79 79
r 0.908556 1 2 cbr 500 ------- 1 0.0 2.0 75 75
+ 0.91 0 1 cbr 500 ------- 1 0.0 2.0 82 82
- 0.91 0 1 cbr 500 ------- 1 0.0 2.0 82 82
r 0.911778 0 1 cbr 500 ------- 1 0.0 2.0 80 80
+ 0.911778 1 2 cbr 500 ------- 1 0.0 2.0 80 80
- 0.911778 1 2 cbr 500 ------- 1 0.0 2.0 80 80
r 0.913556 1 2 cbr 500 ------- 1 0.0 2.0 76 76
+ 0.915 0 1 cbr 500 ------- 1 0.0 2.0 83 83
- 0.915 0 1 cbr 500 ------- 1 0.0 2.0 83 83
r 0.916778 0 1 cbr 500 ------- 1 0.0 2.0 81 81
+ 0.916778 1 2 cbr 500 ------- 1 0.0 2.0 81 81
- 0.916778 1 2 cbr 500 ------- 1 0.0 2.0 81 81
r 0.918556 1 2 cbr 500 ------- 1 0.0 2.0 77 77
+ 0.92 0 1 cbr 500 ------- 1 0.0 2.0 84 84
- 0.92 0 1 cbr 500 ------- 1 0.0 2.0 84 84
r 0.921778 0 1 cbr 500 ------- 1 0.0 2.0 82 82
+ 0.921778 1 2 cbr 500 ------- 1 0.0 2.0 82 82
- 0.921778 1 2 cbr 500 ------- 1 0.0 2.0 82 82
r 0.923556 1 2 cbr 500 ------- 1 0.0 2.0 78 78
+ 0.925 0 1 cbr 500 ------- 1 0.0 2.0 85 85
- 0.925 0 1 cbr 500 ------- 1 0.0 2.0 85 85
r 0.926778 0 1 cbr 500 ------- 1 0.0 2.0 83 83
+ 0.926778 1 2 cbr 500 ------- 1 0.0 2.0 83 83
- 0.926778 1 2 cbr 500 ------- 1 0.0 2.0 83 83
r 0.928556 1 2 cbr 500 ------- 1 0.0 2.0 79 79
+ 0.93 0 1 cbr 500 ------- 1 0.0 2.0 86 86
- 0.93 0 1 cbr 500 ------- 1 0.0 2.0 86 86
r 0.931778 0 1 cbr 500 ------- 1 0.0 2.0 84 84
+ 0.931778 1 2 cbr 500 ------- 1 0.0 2.0 84 84
- 0.931778 1 2 cbr 500 ------- 1 0.0 2.0 84 84
r 0.933556 1 2 cbr 500 ------- 1 0.0 2.0 80 80
+ 0.935 0 1 cbr 500 ------- 1 0.0 2.0 87 87
- 0.935 0 1 cbr 500 ------- 1 0.0 2.0 87 87
r 0.936778 0 1 cbr 500 ------- 1 0.0 2.0 85 85
+ 0.936778 1 2 cbr 500 ------- 1 0.0 2.0 85 85
- 0.936778 1 2 cbr 500 ------- 1 0.0 2.0 85 85
r 0.938556 1 2 cbr 500 ------- 1 0.0 2.0 81 81
+ 0.94 0 1 cbr 500 ------- 1 0.0 2.0 88 88
- 0.94 0 1 cbr 500 ------- 1 0.0 2.0 88 88
r 0.941778 0 1 cbr 500 ------- 1 0.0 2.0 86 86
+ 0.941778 1 2 cbr 500 ------- 1 0.0 2.0 86 86
- 0.941778 1 2 cbr 500 ------- 1 0.0 2.0 86 86
r 0.943556 1 2 cbr 500 ------- 1 0.0 2.0 82 82
+ 0.945 0 1 cbr 500 ------- 1 0.0 2.0 89 89
- 0.945 0 1 cbr 500 ------- 1 0.0 2.0 89 89
r 0.946778 0 1 cbr 500 ------- 1 0.0 2.0 87 87
+ 0.946778 1 2 cbr 500 ------- 1 0.0 2.0 87 87
- 0.946778 1 2 cbr 500 ------- 1 0.0 2.0 87 87
r 0.948556 1 2 cbr 500 ------- 1 0.0 2.0 83 83
+ 0.95 0 1 cbr 500 ------- 1 0.0 2.0 90 90
- 0.95 0 1 cbr 500 ------- 1 0.0 2.0 90 90
r 0.951778 0 1 cbr 500 ------- 1 0.0 2.0 88 88
+ 0.951778 1 2 cbr 500 ------- 1 0.0 2.0 88 88
- 0.951778 1 2 cbr 500 ------- 1 0.0 2.0 88 88
r 0.953556 1 2 cbr 500 ------- 1 0.0 2.0 84 84
+ 0.955 0 1 cbr 500 ------- 1 0.0 2.0 91 91
- 0.955 0 1 cbr 500 ------- 1 0.0 2.0 91 91
r 0.956778 0 1 cbr 500 ------- 1 0.0 2.0 89 89
+ 0.956778 1 2 cbr 500 ------- 1 0.0 2.0 89 89
- 0.956778 1 2 cbr 500 ------- 1 0.0 2.0 89 89
r 0.958556 1 2 cbr 500 ------- 1 0.0 2.0 85 85
+ 0.96 0 1 cbr 500 ------- 1 0.0 2.0 92 92
- 0.96 0 1 cbr 500 ------- 1 0.0 2.0 92 92
r 0.961778 0 1 cbr 500 ------- 1 0.0 2.0 90 90
+ 0.961778 1 2 cbr 500 ------- 1 0.0 2.0 90 90
- 0.961778 1 2 cbr 500 ------- 1 0.0 2.0 90 90
r 0.963556 1 2 cbr 500 ------- 1 0.0 2.0 86 86
+ 0.965 0 1 cbr 500 ------- 1 0.0 2.0 93 93
- 0.965 0 1 cbr 500 ------- 1 0.0 2.0 93 93
r 0.966778 0 1 cbr 500 ------- 1 0.0 2.0 91 91
+ 0.966778 1 2 cbr 500 ------- 1 0.0 2.0 91 91
- 0.966778 1 2 cbr 500 ------- 1 0.0 2.0 91 91
r 0.968556 1 2 cbr 500 ------- 1 0.0 2.0 87 87
+ 0.97 0 1 cbr 500 ------- 1 0.0 2.0 94 94
- 0.97 0 1 cbr 500 ------- 1 0.0 2.0 94 94
r 0.971778 0 1 cbr 500 ------- 1 0.0 2.0 92 92
+ 0.971778 1 2 cbr 500 ------- 1 0.0 2.0 92 92
- 0.971778 1 2 cbr 500 ------- 1 0.0 2.0 92 92
r 0.973556 1 2 cbr 500 ------- 1 0.0 2.0 88 88
+ 0.975 0 1 cbr 500 ------- 1 0.0 2.0 95 95
- 0.975 0 1 cbr 500 ------- 1 0.0 2.0 95 95
r 0.976778 0 1 cbr 500 ------- 1 0.0 2.0 93 93
+ 0.976778 1 2 cbr 500 ------- 1 0.0 2.0 93 93
- 0.976778 1 2 cbr 500 ------- 1 0.0 2.0 93 93
r 0.978556 1 2 cbr 500 ------- 1 0.0 2.0 89 89
+ 0.98 0 1 cbr 500 ------- 1 0.0 2.0 96 96
- 0.98 0 1 cbr 500 ------- 1 0.0 2.0 96 96
r 0.981778 0 1 cbr 500 ------- 1 0.0 2.0 94 94
+ 0.981778 1 2 cbr 500 ------- 1 0.0 2.0 94 94
- 0.981778 1 2 cbr 500 ------- 1 0.0 2.0 94 94
r 0.983556 1 2 cbr 500 ------- 1 0.0 2.0 90 90
+ 0.985 0 1 cbr 500 ------- 1 0.0 2.0 97 97
- 0.985 0 1 cbr 500 ------- 1 0.0 2.0 97 97
r 0.986778 0 1 cbr 500 ------- 1 0.0 2.0 95 95
+ 0.986778 1 2 cbr 500 ------- 1 0.0 2.0 95 95
- 0.986778 1 2 cbr 500 ------- 1 0.0 2.0 95 95
r 0.988556 1 2 cbr 500 ------- 1 0.0 2.0 91 91
+ 0.99 0 1 cbr 500 ------- 1 0.0 2.0 98 98
- 0.99 0 1 cbr 500 ------- 1 0.0 2.0 98 98
r 0.991778 0 1 cbr 500 ------- 1 0.0 2.0 96 96
+ 0.991778 1 2 cbr 500 ------- 1 0.0 2.0 96 96
- 0.991778 1 2 cbr 500 ------- 1 0.0 2.0 96 96
r 0.993556 1 2 cbr 500 ------- 1 0.0 2.0 92 92
+ 0.995 0 1 cbr 500 ------- 1 0.0 2.0 99 99
- 0.995 0 1 cbr 500 ------- 1 0.0 2.0 99 99
r 0.996778 0 1 cbr 500 ------- 1 0.0 2.0 97 97
+ 0.996778 1 2 cbr 500 ------- 1 0.0 2.0 97 97
- 0.996778 1 2 cbr 500 ------- 1 0.0 2.0 97 97
r 0.998556 1 2 cbr 500 ------- 1 0.0 2.0 93 93
+ 1 0 1 cbr 500 ------- 1 0.0 2.0 100 100
- 1 0 1 cbr 500 ------- 1 0.0 2.0 100 100
r 1.001778 0 1 cbr 500 ------- 1 0.0 2.0 98 98
+ 1.001778 1 2 cbr 500 ------- 1 0.0 2.0 98 98
- 1.001778 1 2 cbr 500 ------- 1 0.0 2.0 98 98
r 1.003556 1 2 cbr 500 ------- 1 0.0 2.0 94 94
+ 1.005 0 1 cbr 500 ------- 1 0.0 2.0 101 101
- 1.005 0 1 cbr 500 ------- 1 0.0 2.0 101 101
r 1.006778 0 1 cbr 500 ------- 1 0.0 2.0 99 99
+ 1.006778 1 2 cbr 500 ------- 1 0.0 2.0 99 99
- 1.006778 1 2 cbr 500 ------- 1 0.0 2.0 99 99
r 1.008556 1 2 cbr 500 ------- 1 0.0 2.0 95 95
+ 1.01 0 1 cbr 500 ------- 1 0.0 2.0 102 102
- 1.01 0 1 cbr 500 ------- 1 0.0 2.0 102 102
r 1.011778 0 1 cbr 500 ------- 1 0.0 2.0 100 100
+ 1.011778 1 2 cbr 500 ------- 1 0.0 2.0 100 100
- 1.011778 1 2 cbr 500 ------- 1 0.0 2.0 100 100
r 1.013556 1 2 cbr 500 ------- 1 0.0 2.0 96 96
+ 1.015 0 1 cbr 500 ------- 1 0.0 2.0 103 103
- 1.015 0 1 cbr 500 ------- 1 0.0 2.0 103 103
r 1.016778 0 1 cbr 500 ------- 1 0.0 2.0 101 101
+ 1.016778 1 2 cbr 500 ------- 1 0.0 2.0 101 101
- 1.016778 1 2 cbr 500 ------- 1 0.0 2.0 101 101
r 1.018556 1 2 cbr 500 ------- 1 0.0 2.0 97 97
+ 1.02 0 1 cbr 500 ------- 1 0.0 2.0 104 104
- 1.02 0 1 cbr 500 ------- 1 0.0 2.0 104 104
r 1.021778 0 1 cbr 500 ------- 1 0.0 2.0 102 102
+ 1.021778 1 2 cbr 500 ------- 1 0.0 2.0 102 102
- 1.021778 1 2 cbr 500 ------- 1 0.0 2.0 102 102
r 1.023556 1 2 cbr 500 ------- 1 0.0 2.0 98 98
+ 1.025 0 1 cbr 500 ------- 1 0.0 2.0 105 105
- 1.025 0 1 cbr 500 ------- 1 0.0 2.0 105 105
r 1.026778 0 1 cbr 500 ------- 1 0.0 2.0 103 103
+ 1.026778 1 2 cbr 500 ------- 1 0.0 2.0 103 103
- 1.026778 1 2 cbr 500 ------- 1 0.0 2.0 103 103
r 1.028556 1 2 cbr 500 ------- 1 0.0 2.0 99 99
+ 1.03 0 1 cbr 500 ------- 1 0.0 2.0 106 106
- 1.03 0 1 cbr 500 ------- 1 0.0 2.0 106 106
r 1.031778 0 1 cbr 500 ------- 1 0.0 2.0 104 104
+ 1.031778 1 2 cbr 500 ------- 1 0.0 2.0 104 104
- 1.031778 1 2 cbr 500 ------- 1 0.0 2.0 104 104
r 1.033556 1 2 cbr 500 ------- 1 0.0 2.0 100 100
+ 1.035 0 1 cbr 500 ------- 1 0.0 2.0 107 107
- 1.035 0 1 cbr 500 ------- 1 0.0 2.0 107 107
r 1.036778 0 1 cbr 500 ------- 1 0.0 2.0 105 105
+ 1.036778 1 2 cbr 500 ------- 1 0.0 2.0 105 105
- 1.036778 1 2 cbr 500 ------- 1 0.0 2.0 105 105
r 1.038556 1 2 cbr 500 ------- 1 0.0 2.0 101 101
+ 1.04 0 1 cbr 500 ------- 1 0.0 2.0 108 108
- 1.04 0 1 cbr 500 ------- 1 0.0 2.0 108 108
r 1.041778 0 1 cbr 500 ------- 1 0.0 2.0 106 106
+ 1.041778 1 2 cbr 500 ------- 1 0.0 2.0 106 106
- 1.041778 1 2 cbr 500 ------- 1 0.0 2.0 106 106
r 1.043556 1 2 cbr 500 ------- 1 0.0 2.0 102 102